<?xml version="1.0" encoding="UTF-8"?>

<!-- generated on 2026-05-03T12:13:57.592200+03:00 by Eclipse SUMO GUI v1_26_0+1000-c71e510aa5d
<sumoConfiguration xmlns:xsi="http://www.w3.org/2001/XMLSchema-instance" xsi:noNamespaceSchemaLocation="http://sumo.dlr.de/xsd/sumoConfiguration.xsd">

    <input>
        <net-file value="/home/diaden/2026-05-03-12-13-41/osm.net.xml.gz"/>
        <route-files value="/home/diaden/2026-05-03-12-13-41/osm.passenger.trips.xml,/home/diaden/2026-05-03-12-13-41/osm_pt.rou.xml"/>
        <additional-files value="/home/diaden/2026-05-03-12-13-41/osm.poly.xml.gz,/home/diaden/2026-05-03-12-13-41/osm_stops.add.xml,/home/diaden/2026-05-03-12-13-41/output.add.xml"/>
    </input>

    <output>
        <tripinfo-output value="/home/diaden/2026-05-03-12-13-41/tripinfos.xml"/>
        <stop-output value="/home/diaden/2026-05-03-12-13-41/stopinfos.xml"/>
        <statistic-output value="/home/diaden/2026-05-03-12-13-41/stats.xml"/>
    </output>

    <processing>
        <ignore-route-errors value="true"/>
        <tls.actuated.jam-threshold value="30"/>
    </processing>

    <routing>
        <device.rerouting.adaptation-steps value="18"/>
        <device.rerouting.adaptation-interval value="10"/>
    </routing>

    <report>
        <verbose value="true"/>
        <duration-log.statistics value="true"/>
        <no-step-log value="true"/>
    </report>

    <gui_only>
        <gui-settings-file value="/home/diaden/2026-05-03-12-13-41/osm.view.xml"/>
    </gui_only>

</sumoConfiguration>
-->

<tripinfos xmlns:xsi="http://www.w3.org/2001/XMLSchema-instance" xsi:noNamespaceSchemaLocation="http://sumo.dlr.de/xsd/tripinfo_file.xsd">
    <tripinfo id="veh1" depart="12.00" departLane="295298101#0_1" departPos="5.10" departSpeed="15.64" departDelay="0.10" arrival="47.00" arrivalLane="23265254#2_0" arrivalPos="19.66" arrivalSpeed="14.48" duration="35.00" routeLength="511.37" waitingTime="0.00" waitingCount="0" stopTime="0.00" timeLoss="1.55" rerouteNo="1" devices="tripinfo_veh1 routing_veh1" vType="veh_passenger" speedFactor="0.94" vaporized=""/>
    <tripinfo id="veh2" depart="24.00" departLane="430045516_1" departPos="5.10" departSpeed="22.45" departDelay="0.19" arrival="55.00" arrivalLane="28053288#1_0" arrivalPos="39.96" arrivalSpeed="21.48" duration="31.00" routeLength="669.52" waitingTime="0.00" waitingCount="0" stopTime="0.00" timeLoss="0.88" rerouteNo="1" devices="tripinfo_veh2 routing_veh2" vType="veh_passenger" speedFactor="1.01" vaporized=""/>
    <tripinfo id="veh5" depart="60.00" departLane="264292226_2" departPos="0.46" departSpeed="0.00" departDelay="0.48" arrival="90.00" arrivalLane="80601115_0" arrivalPos="46.77" arrivalSpeed="12.94" duration="30.00" routeLength="431.24" waitingTime="0.00" waitingCount="0" stopTime="0.00" timeLoss="5.32" rerouteNo="1" devices="tripinfo_veh5 routing_veh5" vType="veh_passenger" speedFactor="0.83" vaporized=""/>
    <tripinfo id="veh9" depart="108.00" departLane="964943667_0" departPos="5.10" departSpeed="0.00" departDelay="0.87" arrival="165.00" arrivalLane="184849822#7_0" arrivalPos="9.01" arrivalSpeed="7.36" duration="57.00" routeLength="697.84" waitingTime="0.00" waitingCount="0" stopTime="0.00" timeLoss="11.85" rerouteNo="1" devices="tripinfo_veh9 routing_veh9" vType="veh_passenger" speedFactor="0.86" vaporized=""/>
    <tripinfo id="veh7" depart="84.00" departLane="295298101#0_3" departPos="5.10" departSpeed="14.77" departDelay="0.67" arrival="168.00" arrivalLane="252110509#0_0" arrivalPos="9.48" arrivalSpeed="15.08" duration="84.00" routeLength="917.75" waitingTime="11.00" waitingCount="1" stopTime="0.00" timeLoss="21.91" rerouteNo="1" devices="tripinfo_veh7 routing_veh7" vType="veh_passenger" speedFactor="0.89" vaporized=""/>
    <tripinfo id="pt_bus_м3а:0.0" depart="55.00" departLane="430045516_0" departPos="12.10" departSpeed="0.00" departDelay="0.00" arrival="182.00" arrivalLane="594899552_0" arrivalPos="110.73" arrivalSpeed="21.47" duration="127.00" routeLength="776.76" waitingTime="0.00" waitingCount="0" stopTime="60.00" timeLoss="12.78" rerouteNo="0" devices="tripinfo_pt_bus_м3а:0.0" vType="pt_bus" speedFactor="1.00" vaporized=""/>
    <tripinfo id="veh13" depart="155.00" departLane="295298101#0_1" departPos="5.10" departSpeed="18.72" departDelay="0.25" arrival="183.00" arrivalLane="23265254#1_1" arrivalPos="80.42" arrivalSpeed="17.46" duration="28.00" routeLength="486.58" waitingTime="0.00" waitingCount="0" stopTime="0.00" timeLoss="1.31" rerouteNo="1" devices="tripinfo_veh13 routing_veh13" vType="veh_passenger" speedFactor="1.12" vaporized=""/>
    <tripinfo id="veh3" depart="36.00" departLane="184849822#6_0" departPos="2.87" departSpeed="0.00" departDelay="0.29" arrival="188.00" arrivalLane="1241633682_1" arrivalPos="51.70" arrivalSpeed="23.06" duration="152.00" routeLength="1738.36" waitingTime="39.00" waitingCount="2" stopTime="0.00" timeLoss="60.22" rerouteNo="1" devices="tripinfo_veh3 routing_veh3" vType="veh_passenger" speedFactor="1.08" vaporized=""/>
    <tripinfo id="veh0" depart="0.00" departLane="154204353_0" departPos="5.10" departSpeed="17.67" departDelay="0.00" arrival="192.00" arrivalLane="184849822#6_1" arrivalPos="2.87" arrivalSpeed="16.61" duration="192.00" routeLength="2457.18" waitingTime="31.00" waitingCount="3" stopTime="0.00" timeLoss="50.25" rerouteNo="1" devices="tripinfo_veh0 routing_veh0" vType="veh_passenger" speedFactor="1.06" vaporized=""/>
    <tripinfo id="veh14" depart="171.00" departLane="252110509#1_0" departPos="3.00" departSpeed="0.00" departDelay="4.35" arrival="202.00" arrivalLane="78432206#2_0" arrivalPos="42.21" arrivalSpeed="21.29" duration="31.00" routeLength="435.89" waitingTime="0.00" waitingCount="0" stopTime="0.00" timeLoss="9.96" rerouteNo="1" devices="tripinfo_veh14 routing_veh14" vType="veh_passenger" speedFactor="0.99" vaporized=""/>
    <tripinfo id="veh10" depart="120.00" departLane="-432750249#0_1" departPos="5.10" departSpeed="0.00" departDelay="0.96" arrival="216.00" arrivalLane="157600515#1_0" arrivalPos="170.62" arrivalSpeed="17.17" duration="96.00" routeLength="959.23" waitingTime="23.00" waitingCount="1" stopTime="0.00" timeLoss="41.31" rerouteNo="1" devices="tripinfo_veh10 routing_veh10" vType="veh_passenger" speedFactor="1.09" vaporized=""/>
    <tripinfo id="veh12" depart="143.00" departLane="-1272473364#1_1" departPos="5.10" departSpeed="0.00" departDelay="0.16" arrival="236.00" arrivalLane="28053297#1_0" arrivalPos="162.61" arrivalSpeed="22.00" duration="93.00" routeLength="1143.19" waitingTime="8.00" waitingCount="1" stopTime="0.00" timeLoss="27.53" rerouteNo="1" devices="tripinfo_veh12 routing_veh12" vType="veh_passenger" speedFactor="1.05" vaporized=""/>
    <tripinfo id="veh6" depart="72.00" departLane="154204353_1" departPos="5.10" departSpeed="17.43" departDelay="0.58" arrival="237.00" arrivalLane="1272473366_1" arrivalPos="76.11" arrivalSpeed="16.86" duration="165.00" routeLength="2379.12" waitingTime="9.00" waitingCount="1" stopTime="0.00" timeLoss="26.84" rerouteNo="1" devices="tripinfo_veh6 routing_veh6" vType="veh_passenger" speedFactor="1.05" vaporized=""/>
    <tripinfo id="veh4" depart="48.00" departLane="902481333#0_1" departPos="5.10" departSpeed="17.18" departDelay="0.39" arrival="240.00" arrivalLane="131700470#1_1" arrivalPos="23.07" arrivalSpeed="17.01" duration="192.00" routeLength="2294.84" waitingTime="34.00" waitingCount="2" stopTime="0.00" timeLoss="57.30" rerouteNo="1" devices="tripinfo_veh4 routing_veh4" vType="veh_passenger" speedFactor="1.03" vaporized=""/>
    <tripinfo id="veh8" depart="96.00" departLane="902481333#2_0" departPos="5.10" departSpeed="0.00" departDelay="0.77" arrival="241.00" arrivalLane="252110509#2_0" arrivalPos="93.14" arrivalSpeed="20.38" duration="145.00" routeLength="1865.46" waitingTime="8.00" waitingCount="1" stopTime="0.00" timeLoss="26.13" rerouteNo="1" devices="tripinfo_veh8 routing_veh8" vType="veh_passenger" speedFactor="0.94" vaporized=""/>
    <tripinfo id="veh21" depart="250.00" departLane="252110509#2_0" departPos="5.10" departSpeed="0.00" departDelay="0.02" arrival="285.00" arrivalLane="395544026#0_1" arrivalPos="38.43" arrivalSpeed="21.89" duration="35.00" routeLength="521.61" waitingTime="0.00" waitingCount="0" stopTime="0.00" timeLoss="10.31" rerouteNo="1" devices="tripinfo_veh21 routing_veh21" vType="veh_passenger" speedFactor="1.01" vaporized=""/>
    <tripinfo id="veh15" depart="179.00" departLane="184849822#10_0" departPos="5.10" departSpeed="0.00" departDelay="0.44" arrival="290.00" arrivalLane="252110509#2_0" arrivalPos="93.14" arrivalSpeed="20.16" duration="111.00" routeLength="1268.86" waitingTime="16.00" waitingCount="1" stopTime="0.00" timeLoss="29.45" rerouteNo="1" devices="tripinfo_veh15 routing_veh15" vType="veh_passenger" speedFactor="0.93" vaporized=""/>
    <tripinfo id="veh18" depart="215.00" departLane="252110509#0_0" departPos="5.10" departSpeed="0.00" departDelay="0.73" arrival="297.00" arrivalLane="184849822#8_1" arrivalPos="59.29" arrivalSpeed="15.53" duration="82.00" routeLength="1049.05" waitingTime="4.00" waitingCount="1" stopTime="0.00" timeLoss="22.34" rerouteNo="1" devices="tripinfo_veh18 routing_veh18" vType="veh_passenger" speedFactor="0.94" vaporized=""/>
    <tripinfo id="veh11" depart="131.00" departLane="902481333#0_1" departPos="5.10" departSpeed="17.11" departDelay="0.06" arrival="298.00" arrivalLane="497960128_1" arrivalPos="24.44" arrivalSpeed="17.10" duration="167.00" routeLength="2330.87" waitingTime="7.00" waitingCount="2" stopTime="0.00" timeLoss="29.86" rerouteNo="1" devices="tripinfo_veh11 routing_veh11" vType="veh_passenger" speedFactor="1.03" vaporized=""/>
    <tripinfo id="pt_bus_294:0.0" depart="15.00" departLane="30735492_0" departPos="12.10" departSpeed="0.00" departDelay="0.00" arrival="300.00" arrivalLane="157600515#1_0" arrivalPos="170.62" arrivalSpeed="4.10" duration="285.00" routeLength="1744.78" waitingTime="35.00" waitingCount="2" stopTime="85.00" timeLoss="57.58" rerouteNo="0" devices="tripinfo_pt_bus_294:0.0" vType="pt_bus" speedFactor="1.00" vaporized=""/>
</tripinfos>
