<?xml version="1.0" encoding="UTF-8"?>

<!-- generated on 2026-05-27T19:52:48.560962+03:00 by Eclipse SUMO GUI v1_26_0+1000-c71e510aa5d
<sumoConfiguration xmlns:xsi="http://www.w3.org/2001/XMLSchema-instance" xsi:noNamespaceSchemaLocation="http://sumo.dlr.de/xsd/sumoConfiguration.xsd">

    <input>
        <net-file value="/mnt/extra/git_projects/Sumo_repo/2026-05-03-12-56-33/osm.net.xml.gz"/>
        <route-files value="/mnt/extra/git_projects/Sumo_repo/2026-05-03-12-56-33/osm.passenger.trips.xml"/>
        <additional-files value="/mnt/extra/git_projects/Sumo_repo/2026-05-03-12-56-33/osm.poly.xml.gz,/mnt/extra/git_projects/Sumo_repo/2026-05-03-12-56-33/osm_stops.add.xml,/mnt/extra/git_projects/Sumo_repo/2026-05-03-12-56-33/output.add.xml,/mnt/extra/git_projects/Sumo_repo/2026-05-03-12-56-33/osm.dat.add.xml"/>
    </input>

    <output>
        <tripinfo-output value="/mnt/extra/git_projects/Sumo_repo/2026-05-03-12-56-33/tripinfos.xml"/>
        <stop-output value="/mnt/extra/git_projects/Sumo_repo/2026-05-03-12-56-33/stopinfos.xml"/>
        <statistic-output value="/mnt/extra/git_projects/Sumo_repo/2026-05-03-12-56-33/stats.xml"/>
    </output>

    <time>
        <step-length value="0.2"/>
    </time>

    <processing>
        <ignore-route-errors value="true"/>
        <tls.actuated.jam-threshold value="30"/>
    </processing>

    <routing>
        <device.rerouting.adaptation-steps value="18"/>
        <device.rerouting.adaptation-interval value="10"/>
    </routing>

    <report>
        <verbose value="true"/>
        <duration-log.statistics value="true"/>
        <no-step-log value="true"/>
    </report>

    <gui_only>
        <gui-settings-file value="/mnt/extra/git_projects/Sumo_repo/2026-05-03-12-56-33/osm.view.xml"/>
        <delay value="100"/>
    </gui_only>

</sumoConfiguration>
-->

<meandata xmlns:xsi="http://www.w3.org/2001/XMLSchema-instance" xsi:noNamespaceSchemaLocation="http://sumo.dlr.de/xsd/meandata_file.xsd">
    <interval begin="0.00" end="1116.00" id="wizard_example">
        <edge id="-1272473364#0" sampledSeconds="423.39" traveltime="6.15" overlapTraveltime="12.83" density="10.72" overlapDensity="22.34" laneDensity="5.36" occupancy="8.34" waitingTime="76.60" timeLoss="366.02" speed="2.26" speedRelative="0.14" departed="0" arrived="0" entered="33" left="33" laneChangedFrom="0" laneChangedTo="0" flow="106.45"/>
        <edge id="-1272473364#1" sampledSeconds="279.61" traveltime="3.54" overlapTraveltime="8.47" density="5.41" overlapDensity="12.95" laneDensity="2.71" occupancy="4.98" waitingTime="24.40" timeLoss="217.57" speed="3.70" speedRelative="0.22" departed="0" arrived="0" entered="33" left="33" laneChangedFrom="0" laneChangedTo="0" flow="106.45"/>
        <edge id="-1272473364#2" sampledSeconds="103.83" traveltime="1.75" overlapTraveltime="3.15" density="5.72" overlapDensity="10.27" laneDensity="2.86" occupancy="3.20" waitingTime="21.40" timeLoss="62.14" speed="6.69" speedRelative="0.40" departed="0" arrived="0" entered="33" left="33" laneChangedFrom="0" laneChangedTo="0" flow="106.45"/>
        <edge id="-1272473366" sampledSeconds="70.23" traveltime="7.73" overlapTraveltime="8.86" density="0.78" overlapDensity="0.78" laneDensity="0.78" occupancy="0.84" waitingTime="0.00" timeLoss="26.26" speed="10.44" speedRelative="0.63" departed="0" arrived="9" entered="9" left="0" laneChangedFrom="0" laneChangedTo="0" flow="29.03"/>
        <edge id="-131700468#0" sampledSeconds="0.00" departed="0" arrived="0" entered="0" left="0" laneChangedFrom="0" laneChangedTo="0"/>
        <edge id="-131700468#2" sampledSeconds="0.00" departed="0" arrived="0" entered="0" left="0" laneChangedFrom="0" laneChangedTo="0"/>
        <edge id="-131700468#3" sampledSeconds="0.00" departed="0" arrived="0" entered="0" left="0" laneChangedFrom="0" laneChangedTo="0"/>
        <edge id="-131700468#4" sampledSeconds="0.00" departed="0" arrived="0" entered="0" left="0" laneChangedFrom="0" laneChangedTo="0"/>
        <edge id="-131700468#5" sampledSeconds="0.00" departed="0" arrived="0" entered="0" left="0" laneChangedFrom="0" laneChangedTo="0"/>
        <edge id="-154204353" sampledSeconds="1622.83" traveltime="208.54" overlapTraveltime="222.49" density="8.15" overlapDensity="8.15" laneDensity="8.15" occupancy="9.73" waitingTime="1422.80" timeLoss="1521.11" speed="0.86" speedRelative="0.05" departed="0" arrived="1" entered="9" left="2" laneChangedFrom="0" laneChangedTo="0" teleported="2" flow="25.10"/>
        <edge id="-157600569#0" sampledSeconds="155.32" traveltime="3.51" overlapTraveltime="5.01" density="4.86" overlapDensity="6.95" laneDensity="2.43" occupancy="2.53" waitingTime="0.00" timeLoss="95.76" speed="6.39" speedRelative="0.38" departed="0" arrived="0" entered="31" left="31" laneChangedFrom="0" laneChangedTo="0" flow="100.00"/>
        <edge id="-157600569#1" sampledSeconds="1060.92" traveltime="30.72" overlapTraveltime="33.25" density="22.01" overlapDensity="23.62" laneDensity="11.01" occupancy="11.67" waitingTime="162.40" timeLoss="705.34" speed="1.57" speedRelative="0.09" departed="0" arrived="0" entered="33" left="31" laneChangedFrom="0" laneChangedTo="0" flow="103.80"/>
        <edge id="-157600591#1" sampledSeconds="93.33" traveltime="6.56" overlapTraveltime="9.53" density="2.11" overlapDensity="3.00" laneDensity="1.05" occupancy="1.50" waitingTime="25.00" timeLoss="75.00" speed="4.19" speedRelative="0.19" departed="0" arrived="0" entered="10" left="10" laneChangedFrom="0" laneChangedTo="0" flow="32.26"/>
        <edge id="-295298104#0" sampledSeconds="172.98" traveltime="4.11" overlapTraveltime="5.24" density="1.94" overlapDensity="2.47" laneDensity="1.94" occupancy="2.44" waitingTime="0.00" timeLoss="25.22" speed="14.24" speedRelative="0.85" departed="0" arrived="0" entered="33" left="33" laneChangedFrom="0" laneChangedTo="0" flow="106.45"/>
        <edge id="-295298104#1" sampledSeconds="228.40" traveltime="6.13" overlapTraveltime="6.92" density="2.43" overlapDensity="2.75" laneDensity="2.43" occupancy="2.82" waitingTime="0.00" timeLoss="57.15" speed="12.50" speedRelative="0.75" departed="0" arrived="0" entered="33" left="33" laneChangedFrom="0" laneChangedTo="0" flow="106.45"/>
        <edge id="-395544026#1" sampledSeconds="0.00" departed="0" arrived="0" entered="0" left="0" laneChangedFrom="0" laneChangedTo="0"/>
        <edge id="-432750249#0" sampledSeconds="47.10" traveltime="3.82" overlapTraveltime="4.71" density="0.67" overlapDensity="0.83" laneDensity="0.34" occupancy="0.40" waitingTime="0.00" timeLoss="11.29" speed="13.37" speedRelative="0.80" departed="0" arrived="0" entered="10" left="10" laneChangedFrom="0" laneChangedTo="0" flow="32.26"/>
        <edge id="-432750249#1" sampledSeconds="39.29" traveltime="2.68" overlapTraveltime="3.68" density="0.94" overlapDensity="1.26" laneDensity="0.47" occupancy="0.53" waitingTime="0.00" timeLoss="13.69" speed="10.86" speedRelative="0.65" departed="0" arrived="0" entered="11" left="10" laneChangedFrom="0" laneChangedTo="0" flow="35.34"/>
        <edge id="-432750249#2" sampledSeconds="64.46" traveltime="4.63" overlapTraveltime="5.86" density="1.38" overlapDensity="1.75" laneDensity="0.69" occupancy="0.75" waitingTime="0.00" timeLoss="34.78" speed="7.68" speedRelative="0.46" departed="0" arrived="0" entered="11" left="11" laneChangedFrom="0" laneChangedTo="0" flow="35.48"/>
        <edge id="-432750249#4" sampledSeconds="218.32" traveltime="15.72" overlapTraveltime="18.64" density="3.63" overlapDensity="4.23" laneDensity="1.81" occupancy="2.30" waitingTime="0.00" timeLoss="83.22" speed="3.12" speedRelative="0.19" departed="0" arrived="0" entered="12" left="11" laneChangedFrom="11" laneChangedTo="11" flow="38.38"/>
        <edge id="-78432206#0" sampledSeconds="0.00" departed="0" arrived="0" entered="0" left="0" laneChangedFrom="0" laneChangedTo="0"/>
        <edge id="-78432206#1" sampledSeconds="0.00" departed="0" arrived="0" entered="0" left="0" laneChangedFrom="0" laneChangedTo="0"/>
        <edge id="-78432206#2" sampledSeconds="0.00" departed="0" arrived="0" entered="0" left="0" laneChangedFrom="0" laneChangedTo="0"/>
        <edge id="-78432206#3" sampledSeconds="0.00" departed="0" arrived="0" entered="0" left="0" laneChangedFrom="0" laneChangedTo="0"/>
        <edge id="-82496098#2" sampledSeconds="0.00" departed="0" arrived="0" entered="0" left="0" laneChangedFrom="0" laneChangedTo="0"/>
        <edge id="-82496099" sampledSeconds="0.00" departed="0" arrived="0" entered="0" left="0" laneChangedFrom="0" laneChangedTo="0"/>
        <edge id="-83116912#0" sampledSeconds="0.00" departed="0" arrived="0" entered="0" left="0" laneChangedFrom="0" laneChangedTo="0"/>
        <edge id="-83116912#1" sampledSeconds="0.00" departed="0" arrived="0" entered="0" left="0" laneChangedFrom="0" laneChangedTo="0"/>
        <edge id="-E0" sampledSeconds="0.00" departed="0" arrived="0" entered="0" left="0" laneChangedFrom="0" laneChangedTo="0"/>
        <edge id="-E1" sampledSeconds="76.85" traveltime="7.21" overlapTraveltime="8.85" density="0.88" overlapDensity="1.09" laneDensity="0.88" occupancy="1.10" waitingTime="0.00" timeLoss="31.05" speed="8.52" speedRelative="0.61" departed="0" arrived="0" entered="9" left="9" laneChangedFrom="0" laneChangedTo="0" flow="27.81"/>
        <edge id="-E2" sampledSeconds="4809.35" traveltime="95.65" overlapTraveltime="98.12" density="21.38" overlapDensity="21.91" laneDensity="5.35" occupancy="6.41" waitingTime="1603.80" timeLoss="3726.92" speed="2.13" speedRelative="0.15" departed="55" arrived="0" entered="2" left="50" laneChangedFrom="123" laneChangedTo="123" flow="158.32"/>
        <edge id="-E20" sampledSeconds="1850.33" traveltime="42.50" overlapTraveltime="44.95" density="8.41" overlapDensity="8.43" laneDensity="2.10" occupancy="2.49" waitingTime="251.60" timeLoss="787.75" speed="4.64" speedRelative="0.33" departed="0" arrived="42" entered="44" left="0" laneChangedFrom="17" laneChangedTo="17" flow="140.15"/>
        <edge id="-E3" sampledSeconds="25.51" traveltime="5.47" overlapTraveltime="6.38" density="0.34" overlapDensity="0.40" laneDensity="0.17" occupancy="0.20" waitingTime="0.00" timeLoss="6.26" speed="10.82" speedRelative="0.78" departed="0" arrived="0" entered="4" left="4" laneChangedFrom="0" laneChangedTo="0" flow="12.90"/>
        <edge id="1241633682" sampledSeconds="25.58" traveltime="4.15" overlapTraveltime="4.72" density="0.26" overlapDensity="0.27" laneDensity="0.04" occupancy="0.05" waitingTime="0.00" timeLoss="1.92" speed="20.56" speedRelative="0.93" departed="0" arrived="6" entered="6" left="0" laneChangedFrom="0" laneChangedTo="0" flow="19.35"/>
        <edge id="125452530" sampledSeconds="0.00" departed="0" arrived="0" entered="0" left="0" laneChangedFrom="0" laneChangedTo="0"/>
        <edge id="126726784#0" sampledSeconds="0.00" departed="0" arrived="0" entered="0" left="0" laneChangedFrom="0" laneChangedTo="0"/>
        <edge id="126726784#1" sampledSeconds="0.00" departed="0" arrived="0" entered="0" left="0" laneChangedFrom="0" laneChangedTo="0"/>
        <edge id="126726784#2" sampledSeconds="0.00" departed="0" arrived="0" entered="0" left="0" laneChangedFrom="0" laneChangedTo="0"/>
        <edge id="126726784#3" sampledSeconds="0.00" departed="0" arrived="0" entered="0" left="0" laneChangedFrom="0" laneChangedTo="0"/>
        <edge id="1272473359" sampledSeconds="39.19" traveltime="2.54" overlapTraveltime="3.27" density="0.65" overlapDensity="0.83" laneDensity="0.32" occupancy="0.39" waitingTime="0.00" timeLoss="0.14" speed="16.61" speedRelative="1.00" departed="0" arrived="0" entered="12" left="12" laneChangedFrom="0" laneChangedTo="0" flow="38.71"/>
        <edge id="1272473364#0" sampledSeconds="89.72" traveltime="1.19" overlapTraveltime="1.99" density="2.83" overlapDensity="4.73" laneDensity="0.94" occupancy="1.11" waitingTime="0.00" timeLoss="11.49" speed="14.54" speedRelative="0.87" departed="0" arrived="0" entered="45" left="45" laneChangedFrom="0" laneChangedTo="0" flow="145.16"/>
        <edge id="1272473364#1" sampledSeconds="92.06" traveltime="1.28" overlapTraveltime="2.05" density="2.67" overlapDensity="4.27" laneDensity="0.89" occupancy="1.05" waitingTime="0.00" timeLoss="7.46" speed="15.32" speedRelative="0.92" departed="0" arrived="0" entered="45" left="45" laneChangedFrom="0" laneChangedTo="0" flow="145.16"/>
        <edge id="1272473364#2" sampledSeconds="58.58" traveltime="0.57" overlapTraveltime="1.30" density="2.52" overlapDensity="5.79" laneDensity="0.84" occupancy="1.00" waitingTime="0.00" timeLoss="1.73" speed="16.18" speedRelative="0.97" departed="0" arrived="0" entered="45" left="45" laneChangedFrom="0" laneChangedTo="0" flow="145.16"/>
        <edge id="1272473366" sampledSeconds="0.00" departed="0" arrived="0" entered="0" left="0" laneChangedFrom="0" laneChangedTo="0"/>
        <edge id="1272473368" sampledSeconds="0.00" departed="0" arrived="0" entered="0" left="0" laneChangedFrom="0" laneChangedTo="0"/>
        <edge id="131700468#2" sampledSeconds="28.43" traveltime="0.71" overlapTraveltime="1.58" density="1.17" overlapDensity="2.59" laneDensity="1.17" occupancy="1.40" waitingTime="0.00" timeLoss="0.13" speed="13.83" speedRelative="1.00" departed="0" arrived="0" entered="18" left="18" laneChangedFrom="0" laneChangedTo="0" flow="58.06"/>
        <edge id="131700468#3" sampledSeconds="38.45" traveltime="1.27" overlapTraveltime="2.14" density="1.17" overlapDensity="1.97" laneDensity="1.17" occupancy="1.40" waitingTime="0.00" timeLoss="0.19" speed="13.82" speedRelative="1.00" departed="0" arrived="0" entered="18" left="18" laneChangedFrom="0" laneChangedTo="0" flow="58.06"/>
        <edge id="131700468#4" sampledSeconds="40.71" traveltime="1.39" overlapTraveltime="2.26" density="1.17" overlapDensity="1.90" laneDensity="1.17" occupancy="1.40" waitingTime="0.00" timeLoss="0.22" speed="13.82" speedRelative="0.99" departed="0" arrived="0" entered="18" left="18" laneChangedFrom="0" laneChangedTo="0" flow="58.06"/>
        <edge id="131700468#5" sampledSeconds="49.64" traveltime="1.81" overlapTraveltime="2.76" density="1.18" overlapDensity="1.81" laneDensity="1.18" occupancy="1.45" waitingTime="0.00" timeLoss="2.18" speed="13.28" speedRelative="0.96" departed="0" arrived="0" entered="18" left="18" laneChangedFrom="0" laneChangedTo="0" flow="58.06"/>
        <edge id="131700469#0" sampledSeconds="158.82" traveltime="5.94" overlapTraveltime="6.67" density="1.33" overlapDensity="1.48" laneDensity="0.67" occupancy="0.79" waitingTime="0.00" timeLoss="4.41" speed="16.21" speedRelative="0.97" departed="0" arrived="0" entered="24" left="24" laneChangedFrom="22" laneChangedTo="22" flow="77.42"/>
        <edge id="131700469#1" sampledSeconds="84.23" traveltime="2.59" overlapTraveltime="3.51" density="1.37" overlapDensity="1.85" laneDensity="0.68" occupancy="0.85" waitingTime="0.00" timeLoss="3.19" speed="15.01" speedRelative="0.90" departed="0" arrived="0" entered="24" left="24" laneChangedFrom="2" laneChangedTo="2" flow="77.42"/>
        <edge id="131700470#0" sampledSeconds="182.22" traveltime="7.89" overlapTraveltime="15.18" density="0.99" overlapDensity="1.90" laneDensity="0.49" occupancy="0.71" waitingTime="25.60" timeLoss="111.82" speed="6.44" speedRelative="0.39" departed="0" arrived="0" entered="12" left="12" laneChangedFrom="0" laneChangedTo="0" flow="38.71"/>
        <edge id="131700470#1" sampledSeconds="299.84" traveltime="18.38" overlapTraveltime="24.99" density="7.19" overlapDensity="9.78" laneDensity="3.60" occupancy="4.28" waitingTime="85.51" timeLoss="271.42" speed="1.58" speedRelative="0.09" departed="0" arrived="0" entered="12" left="12" laneChangedFrom="0" laneChangedTo="0" flow="38.71"/>
        <edge id="154204353.882" sampledSeconds="477.07" traveltime="100.62" overlapTraveltime="101.83" density="2.34" overlapDensity="2.38" laneDensity="0.78" occupancy="0.94" waitingTime="26.60" timeLoss="122.39" speed="1.89" speedRelative="0.11" departed="5" arrived="0" entered="0" left="5" laneChangedFrom="5" laneChangedTo="5" flow="15.04"/>
        <edge id="157600556" sampledSeconds="0.00" departed="0" arrived="0" entered="0" left="0" laneChangedFrom="0" laneChangedTo="0"/>
        <edge id="157600565#0" sampledSeconds="127.21" traveltime="3.52" overlapTraveltime="4.24" density="1.62" overlapDensity="1.95" laneDensity="0.81" occupancy="0.97" waitingTime="0.00" timeLoss="0.48" speed="16.61" speedRelative="1.00" departed="0" arrived="0" entered="30" left="30" laneChangedFrom="0" laneChangedTo="0" flow="96.77"/>
        <edge id="157600565#1" sampledSeconds="179.88" traveltime="5.36" overlapTraveltime="6.09" density="1.60" overlapDensity="1.81" laneDensity="0.80" occupancy="0.96" waitingTime="0.00" timeLoss="0.73" speed="16.60" speedRelative="1.00" departed="0" arrived="0" entered="30" left="29" laneChangedFrom="0" laneChangedTo="0" flow="95.54"/>
        <edge id="157600567#0" sampledSeconds="253.95" traveltime="7.49" overlapTraveltime="8.27" density="2.35" overlapDensity="2.58" laneDensity="1.17" occupancy="1.35" waitingTime="0.00" timeLoss="69.46" speed="12.11" speedRelative="0.73" departed="0" arrived="0" entered="31" left="30" laneChangedFrom="24" laneChangedTo="24" flow="99.34"/>
        <edge id="157600567#1" sampledSeconds="223.28" traveltime="6.72" overlapTraveltime="7.44" density="1.63" overlapDensity="1.81" laneDensity="0.82" occupancy="0.98" waitingTime="0.00" timeLoss="2.82" speed="16.46" speedRelative="0.99" departed="0" arrived="0" entered="30" left="30" laneChangedFrom="0" laneChangedTo="0" flow="96.77"/>
        <edge id="157600569#0" sampledSeconds="138.96" traveltime="2.04" overlapTraveltime="3.09" density="4.11" overlapDensity="6.22" laneDensity="1.37" occupancy="1.54" waitingTime="0.00" timeLoss="52.50" speed="10.37" speedRelative="0.62" departed="0" arrived="0" entered="45" left="45" laneChangedFrom="0" laneChangedTo="0" flow="145.16"/>
        <edge id="157600569#1" sampledSeconds="183.26" traveltime="3.22" overlapTraveltime="4.07" density="3.23" overlapDensity="4.09" laneDensity="1.08" occupancy="1.25" waitingTime="0.00" timeLoss="42.37" speed="12.82" speedRelative="0.77" departed="0" arrived="0" entered="45" left="45" laneChangedFrom="0" laneChangedTo="0" flow="145.16"/>
        <edge id="157600591#0" sampledSeconds="0.00" departed="0" arrived="0" entered="0" left="0" laneChangedFrom="0" laneChangedTo="0"/>
        <edge id="169368040" sampledSeconds="90.13" traveltime="3.10" overlapTraveltime="3.91" density="1.32" overlapDensity="1.61" laneDensity="1.32" occupancy="1.59" waitingTime="0.00" timeLoss="2.78" speed="15.93" speedRelative="0.96" departed="0" arrived="0" entered="24" left="24" laneChangedFrom="0" laneChangedTo="0" flow="77.42"/>
        <edge id="169368044" sampledSeconds="65.90" traveltime="11.94" overlapTraveltime="13.40" density="0.30" overlapDensity="0.33" laneDensity="0.30" occupancy="0.37" waitingTime="0.00" timeLoss="10.36" speed="14.16" speedRelative="0.85" departed="0" arrived="0" entered="5" left="4" laneChangedFrom="0" laneChangedTo="0" flow="16.06"/>
        <edge id="184849822#0" sampledSeconds="0.00" departed="0" arrived="0" entered="0" left="0" laneChangedFrom="0" laneChangedTo="0"/>
        <edge id="184849822#10" sampledSeconds="0.00" departed="0" arrived="0" entered="0" left="0" laneChangedFrom="0" laneChangedTo="0"/>
        <edge id="184849822#11" sampledSeconds="0.00" departed="0" arrived="0" entered="0" left="0" laneChangedFrom="0" laneChangedTo="0"/>
        <edge id="184849822#2" sampledSeconds="0.00" departed="0" arrived="0" entered="0" left="0" laneChangedFrom="0" laneChangedTo="0"/>
        <edge id="184849822#3" sampledSeconds="0.00" departed="0" arrived="0" entered="0" left="0" laneChangedFrom="0" laneChangedTo="0"/>
        <edge id="184849822#4" sampledSeconds="0.00" departed="0" arrived="0" entered="0" left="0" laneChangedFrom="0" laneChangedTo="0"/>
        <edge id="184849822#5" sampledSeconds="0.00" departed="0" arrived="0" entered="0" left="0" laneChangedFrom="0" laneChangedTo="0"/>
        <edge id="184849822#6" sampledSeconds="0.00" departed="0" arrived="0" entered="0" left="0" laneChangedFrom="0" laneChangedTo="0"/>
        <edge id="184849822#7" sampledSeconds="0.00" departed="0" arrived="0" entered="0" left="0" laneChangedFrom="0" laneChangedTo="0"/>
        <edge id="184849822#9" sampledSeconds="0.00" departed="0" arrived="0" entered="0" left="0" laneChangedFrom="0" laneChangedTo="0"/>
        <edge id="185707174#1" sampledSeconds="0.00" departed="0" arrived="0" entered="0" left="0" laneChangedFrom="0" laneChangedTo="0"/>
        <edge id="185707177" sampledSeconds="0.00" departed="0" arrived="0" entered="0" left="0" laneChangedFrom="0" laneChangedTo="0"/>
        <edge id="185707193" sampledSeconds="0.00" departed="0" arrived="0" entered="0" left="0" laneChangedFrom="0" laneChangedTo="0"/>
        <edge id="23265254#0" sampledSeconds="20.34" traveltime="4.36" overlapTraveltime="5.08" density="0.24" overlapDensity="0.28" laneDensity="0.12" occupancy="0.14" waitingTime="0.00" timeLoss="1.89" speed="15.12" speedRelative="0.91" departed="0" arrived="0" entered="4" left="4" laneChangedFrom="0" laneChangedTo="0" flow="12.90"/>
        <edge id="23265254#1" sampledSeconds="30.13" traveltime="6.81" overlapTraveltime="7.53" density="0.22" overlapDensity="0.24" laneDensity="0.11" occupancy="0.13" waitingTime="0.00" timeLoss="0.11" speed="16.61" speedRelative="1.00" departed="0" arrived="0" entered="4" left="4" laneChangedFrom="0" laneChangedTo="0" flow="12.90"/>
        <edge id="23265254#2" sampledSeconds="13.36" traveltime="2.62" overlapTraveltime="3.34" density="0.22" overlapDensity="0.28" laneDensity="0.11" occupancy="0.13" waitingTime="0.00" timeLoss="0.04" speed="16.62" speedRelative="1.00" departed="0" arrived="0" entered="4" left="4" laneChangedFrom="0" laneChangedTo="0" flow="12.90"/>
        <edge id="23265254#3" sampledSeconds="29.66" traveltime="6.69" overlapTraveltime="7.42" density="0.22" overlapDensity="0.24" laneDensity="0.11" occupancy="0.13" waitingTime="0.00" timeLoss="0.10" speed="16.61" speedRelative="1.00" departed="0" arrived="0" entered="4" left="4" laneChangedFrom="0" laneChangedTo="0" flow="12.90"/>
        <edge id="23265254#5" sampledSeconds="86.32" traveltime="19.81" overlapTraveltime="21.58" density="0.97" overlapDensity="1.06" laneDensity="0.49" occupancy="0.60" waitingTime="0.00" timeLoss="33.92" speed="3.94" speedRelative="0.24" departed="0" arrived="0" entered="4" left="4" laneChangedFrom="0" laneChangedTo="0" flow="12.90"/>
        <edge id="23265254#6" sampledSeconds="105.07" traveltime="24.68" overlapTraveltime="26.27" density="0.29" overlapDensity="0.31" laneDensity="0.15" occupancy="0.18" waitingTime="6.40" timeLoss="29.48" speed="11.99" speedRelative="0.72" departed="0" arrived="0" entered="4" left="4" laneChangedFrom="0" laneChangedTo="0" flow="12.90"/>
        <edge id="23396772#0" sampledSeconds="0.00" departed="0" arrived="0" entered="0" left="0" laneChangedFrom="0" laneChangedTo="0"/>
        <edge id="23396772#1" sampledSeconds="0.00" departed="0" arrived="0" entered="0" left="0" laneChangedFrom="0" laneChangedTo="0"/>
        <edge id="252110509#2" sampledSeconds="178.30" traveltime="24.44" overlapTraveltime="25.47" density="1.51" overlapDensity="1.57" laneDensity="0.30" occupancy="0.36" waitingTime="0.00" timeLoss="86.43" speed="4.47" speedRelative="0.20" departed="0" arrived="0" entered="7" left="7" laneChangedFrom="0" laneChangedTo="0" flow="22.58"/>
        <edge id="252110509#3" sampledSeconds="134.67" traveltime="16.05" overlapTraveltime="19.24" density="1.95" overlapDensity="2.34" laneDensity="0.39" occupancy="0.51" waitingTime="0.00" timeLoss="58.64" speed="3.31" speedRelative="0.15" departed="0" arrived="0" entered="7" left="7" laneChangedFrom="0" laneChangedTo="0" flow="22.58"/>
        <edge id="252110509#3-AddedOffRampEdge" sampledSeconds="62.73" traveltime="7.97" overlapTraveltime="8.96" density="0.78" overlapDensity="0.88" laneDensity="0.13" occupancy="0.14" waitingTime="0.00" timeLoss="38.80" speed="8.48" speedRelative="0.38" departed="0" arrived="0" entered="7" left="7" laneChangedFrom="0" laneChangedTo="0" flow="22.58"/>
        <edge id="264292208" sampledSeconds="999.19" traveltime="19.88" overlapTraveltime="20.82" density="8.61" overlapDensity="9.01" laneDensity="4.31" occupancy="5.15" waitingTime="95.20" timeLoss="534.65" speed="5.35" speedRelative="0.32" departed="0" arrived="0" entered="48" left="48" laneChangedFrom="0" laneChangedTo="0" flow="154.84"/>
        <edge id="264292224" sampledSeconds="173.50" traveltime="8.12" overlapTraveltime="9.64" density="2.62" overlapDensity="3.12" laneDensity="2.62" occupancy="3.29" waitingTime="36.80" timeLoss="94.83" speed="6.42" speedRelative="0.46" departed="0" arrived="0" entered="18" left="18" laneChangedFrom="0" laneChangedTo="0" flow="58.06"/>
        <edge id="264292225" sampledSeconds="0.00" departed="0" arrived="0" entered="0" left="0" laneChangedFrom="0" laneChangedTo="0"/>
        <edge id="28053288#1" sampledSeconds="0.00" departed="0" arrived="0" entered="0" left="0" laneChangedFrom="0" laneChangedTo="0"/>
        <edge id="28053297#0" sampledSeconds="84.30" traveltime="22.11" overlapTraveltime="22.98" density="0.45" overlapDensity="0.46" laneDensity="0.11" occupancy="0.14" waitingTime="0.00" timeLoss="55.06" speed="7.71" speedRelative="0.35" departed="6" arrived="0" entered="0" left="3" laneChangedFrom="0" laneChangedTo="0" flow="11.99"/>
        <edge id="28053297#1" sampledSeconds="89.08" traveltime="28.69" overlapTraveltime="29.69" density="0.42" overlapDensity="0.44" laneDensity="0.11" occupancy="0.13" waitingTime="0.00" timeLoss="38.75" speed="6.57" speedRelative="0.30" departed="0" arrived="0" entered="3" left="3" laneChangedFrom="0" laneChangedTo="0" flow="9.68"/>
        <edge id="295298104#0" sampledSeconds="204.54" traveltime="3.81" overlapTraveltime="4.61" density="2.42" overlapDensity="2.93" laneDensity="1.21" occupancy="1.46" waitingTime="0.00" timeLoss="5.82" speed="16.20" speedRelative="0.97" departed="0" arrived="0" entered="45" left="44" laneChangedFrom="0" laneChangedTo="0" flow="143.40"/>
        <edge id="295298104#1" sampledSeconds="1177.66" traveltime="25.35" overlapTraveltime="27.71" density="13.08" overlapDensity="14.15" laneDensity="6.54" occupancy="8.09" waitingTime="635.00" timeLoss="954.23" speed="3.12" speedRelative="0.19" departed="0" arrived="0" entered="44" left="41" laneChangedFrom="4" laneChangedTo="4" flow="138.47"/>
        <edge id="296577702" sampledSeconds="23.80" traveltime="2.43" overlapTraveltime="3.40" density="0.51" overlapDensity="0.71" laneDensity="0.08" occupancy="0.10" waitingTime="0.00" timeLoss="10.27" speed="12.37" speedRelative="0.56" departed="0" arrived="0" entered="7" left="7" laneChangedFrom="0" laneChangedTo="0" flow="22.58"/>
        <edge id="296577703#1" sampledSeconds="30.65" traveltime="0.29" overlapTraveltime="1.06" density="1.61" overlapDensity="5.76" laneDensity="0.80" occupancy="0.99" waitingTime="0.00" timeLoss="0.22" speed="15.87" speedRelative="0.95" departed="0" arrived="0" entered="29" left="29" laneChangedFrom="0" laneChangedTo="0" flow="93.55"/>
        <edge id="30735491" sampledSeconds="33.40" traveltime="4.93" overlapTraveltime="5.57" density="0.33" overlapDensity="0.37" laneDensity="0.07" occupancy="0.08" waitingTime="0.00" timeLoss="8.48" speed="16.58" speedRelative="0.75" departed="0" arrived="0" entered="6" left="6" laneChangedFrom="0" laneChangedTo="0" flow="19.35"/>
        <edge id="30735492.83" sampledSeconds="387.96" traveltime="20.69" overlapTraveltime="21.55" density="1.83" overlapDensity="1.90" laneDensity="1.83" occupancy="1.90" waitingTime="0.00" timeLoss="135.65" speed="9.03" speedRelative="0.65" departed="18" arrived="0" entered="0" left="18" laneChangedFrom="0" laneChangedTo="0" flow="58.06"/>
        <edge id="395544026#0" sampledSeconds="11.35" traveltime="7.55" overlapTraveltime="11.35" density="0.13" overlapDensity="0.20" laneDensity="0.04" occupancy="0.07" waitingTime="1.20" timeLoss="7.83" speed="5.62" speedRelative="0.25" departed="0" arrived="0" entered="1" left="1" laneChangedFrom="0" laneChangedTo="0" flow="3.23"/>
        <edge id="430045512#0" sampledSeconds="297.30" traveltime="59.34" overlapTraveltime="61.29" density="0.72" overlapDensity="0.72" laneDensity="0.24" occupancy="0.29" waitingTime="0.00" timeLoss="106.85" speed="6.19" speedRelative="0.37" departed="0" arrived="5" entered="5" left="0" laneChangedFrom="1" laneChangedTo="1" flow="16.13"/>
        <edge id="430045516" sampledSeconds="504.97" traveltime="17.67" overlapTraveltime="18.40" density="3.30" overlapDensity="3.47" laneDensity="0.66" occupancy="0.81" waitingTime="0.00" timeLoss="326.37" speed="7.74" speedRelative="0.35" departed="30" arrived="0" entered="0" left="30" laneChangedFrom="0" laneChangedTo="0" flow="87.80"/>
        <edge id="432750249#0" sampledSeconds="0.00" departed="0" arrived="0" entered="0" left="0" laneChangedFrom="0" laneChangedTo="0"/>
        <edge id="432750249#1" sampledSeconds="0.00" departed="0" arrived="0" entered="0" left="0" laneChangedFrom="0" laneChangedTo="0"/>
        <edge id="432750249#2" sampledSeconds="0.00" departed="0" arrived="0" entered="0" left="0" laneChangedFrom="0" laneChangedTo="0"/>
        <edge id="432750249#4" sampledSeconds="0.00" departed="0" arrived="0" entered="0" left="0" laneChangedFrom="0" laneChangedTo="0"/>
        <edge id="46974418" sampledSeconds="21.18" traveltime="6.42" overlapTraveltime="7.06" density="0.17" overlapDensity="0.19" laneDensity="0.03" occupancy="0.04" waitingTime="0.00" timeLoss="6.13" speed="15.79" speedRelative="0.71" departed="0" arrived="0" entered="3" left="3" laneChangedFrom="0" laneChangedTo="0" flow="9.68"/>