<?xml version="1.0" encoding="UTF-8"?>

<!-- generated on 2026-05-25T17:00:14.991197+03:00 by Eclipse SUMO GUI v1_26_0+1000-c71e510aa5d
<sumoConfiguration xmlns:xsi="http://www.w3.org/2001/XMLSchema-instance" xsi:noNamespaceSchemaLocation="http://sumo.dlr.de/xsd/sumoConfiguration.xsd">

    <input>
        <net-file value="/mnt/extra/git_projects/Sumo_repo/2026-05-03-12-56-33/osm.net.xml.gz"/>
        <route-files value="/mnt/extra/git_projects/Sumo_repo/2026-05-03-12-56-33/osm.passenger.trips.xml"/>
        <additional-files value="/mnt/extra/git_projects/Sumo_repo/2026-05-03-12-56-33/osm.poly.xml.gz,/mnt/extra/git_projects/Sumo_repo/2026-05-03-12-56-33/osm_stops.add.xml,/mnt/extra/git_projects/Sumo_repo/2026-05-03-12-56-33/output.add.xml,/mnt/extra/git_projects/Sumo_repo/2026-05-03-12-56-33/osm.dat.add.xml"/>
    </input>

    <output>
        <tripinfo-output value="/mnt/extra/git_projects/Sumo_repo/2026-05-03-12-56-33/tripinfos.xml"/>
        <stop-output value="/mnt/extra/git_projects/Sumo_repo/2026-05-03-12-56-33/stopinfos.xml"/>
        <statistic-output value="/mnt/extra/git_projects/Sumo_repo/2026-05-03-12-56-33/stats.xml"/>
    </output>

    <time>
        <step-length value="0.2"/>
    </time>

    <processing>
        <ignore-route-errors value="true"/>
        <tls.actuated.jam-threshold value="30"/>
    </processing>

    <routing>
        <device.rerouting.adaptation-steps value="18"/>
        <device.rerouting.adaptation-interval value="10"/>
    </routing>

    <report>
        <verbose value="true"/>
        <duration-log.statistics value="true"/>
        <no-step-log value="true"/>
    </report>

    <gui_only>
        <gui-settings-file value="/mnt/extra/git_projects/Sumo_repo/2026-05-03-12-56-33/osm.view.xml"/>
        <delay value="100"/>
    </gui_only>

</sumoConfiguration>
-->

<tripinfos xmlns:xsi="http://www.w3.org/2001/XMLSchema-instance" xsi:noNamespaceSchemaLocation="http://sumo.dlr.de/xsd/tripinfo_file.xsd">
    <tripinfo id="t_2" depart="0.00" departLane="131700468#5_0" departPos="12.10" departSpeed="0.00" departDelay="0.00" arrival="11.00" arrivalLane="264292224_0" arrivalPos="46.96" arrivalSpeed="10.11" duration="11.00" routeLength="57.88" waitingTime="0.00" waitingCount="0" stopTime="0.00" timeLoss="6.82" rerouteNo="0" devices="tripinfo_t_2 routing_t_2" vType="DEFAULT_VEHTYPE" speedFactor="1.00" vaporized=""/>
    <tripinfo id="t_6" depart="0.00" departLane="264292224_0" departPos="12.10" departSpeed="0.00" departDelay="0.00" arrival="19.60" arrivalLane="264292208_0" arrivalPos="99.32" arrivalSpeed="16.60" duration="19.60" routeLength="179.55" waitingTime="0.00" waitingCount="0" stopTime="0.00" timeLoss="8.03" rerouteNo="0" devices="tripinfo_t_6 routing_t_6" vType="DEFAULT_VEHTYPE" speedFactor="1.00" vaporized=""/>
    <tripinfo id="bus_c339.0" depart="4.00" departLane="-E2_0" departPos="12.10" departSpeed="0.00" departDelay="2.60" arrival="53.80" arrivalLane="-154204353_0" arrivalPos="167.74" arrivalSpeed="16.65" duration="49.80" routeLength="449.69" waitingTime="0.00" waitingCount="0" stopTime="0.00" timeLoss="19.07" rerouteNo="1" devices="tripinfo_bus_c339.0 routing_bus_c339.0" vType="DEFAULT_VEHTYPE" speedFactor="1.00" vaporized=""/>
    <tripinfo id="bus_c339.1" depart="12.40" departLane="-E2_0" departPos="12.10" departSpeed="0.00" departDelay="7.40" arrival="57.00" arrivalLane="-154204353_0" arrivalPos="167.74" arrivalSpeed="16.65" duration="44.60" routeLength="449.69" waitingTime="0.00" waitingCount="0" stopTime="0.00" timeLoss="13.90" rerouteNo="1" devices="tripinfo_bus_c339.1 routing_bus_c339.1" vType="DEFAULT_VEHTYPE" speedFactor="1.00" vaporized=""/>
    <tripinfo id="bus_c339.2" depart="37.00" departLane="-E2_0" departPos="12.10" departSpeed="0.00" departDelay="23.20" arrival="79.40" arrivalLane="-154204353_0" arrivalPos="167.74" arrivalSpeed="16.66" duration="42.40" routeLength="449.69" waitingTime="0.00" waitingCount="0" stopTime="0.00" timeLoss="11.66" rerouteNo="1" devices="tripinfo_bus_c339.2 routing_bus_c339.2" vType="DEFAULT_VEHTYPE" speedFactor="1.00" vaporized=""/>
    <tripinfo id="bus_m3.0" depart="26.80" departLane="28053297#0_0" departPos="12.10" departSpeed="0.00" departDelay="0.00" arrival="84.40" arrivalLane="1241633682_1" arrivalPos="85.12" arrivalSpeed="22.15" duration="57.60" routeLength="1006.43" waitingTime="0.00" waitingCount="0" stopTime="0.00" timeLoss="12.12" rerouteNo="1" devices="tripinfo_bus_m3.0 routing_bus_m3.0" vType="DEFAULT_VEHTYPE" speedFactor="1.00" vaporized=""/>
    <tripinfo id="bus_m3.1" depart="32.40" departLane="28053297#0_0" departPos="12.10" departSpeed="0.00" departDelay="2.80" arrival="89.80" arrivalLane="1241633682_1" arrivalPos="85.12" arrivalSpeed="22.14" duration="57.40" routeLength="1006.43" waitingTime="0.00" waitingCount="0" stopTime="0.00" timeLoss="12.06" rerouteNo="1" devices="tripinfo_bus_m3.1 routing_bus_m3.1" vType="DEFAULT_VEHTYPE" speedFactor="1.00" vaporized=""/>
    <tripinfo id="bus_c339.3" depart="49.60" departLane="-E2_0" departPos="12.10" departSpeed="0.00" departDelay="31.40" arrival="92.60" arrivalLane="-154204353_0" arrivalPos="167.74" arrivalSpeed="16.61" duration="43.00" routeLength="449.69" waitingTime="0.00" waitingCount="0" stopTime="0.00" timeLoss="12.34" rerouteNo="1" devices="tripinfo_bus_c339.3 routing_bus_c339.3" vType="DEFAULT_VEHTYPE" speedFactor="1.00" vaporized=""/>
    <tripinfo id="bus_m3.2" depart="38.00" departLane="28053297#0_0" departPos="12.10" departSpeed="0.00" departDelay="7.40" arrival="95.60" arrivalLane="1241633682_1" arrivalPos="85.12" arrivalSpeed="22.20" duration="57.60" routeLength="1006.43" waitingTime="0.00" waitingCount="0" stopTime="0.00" timeLoss="12.18" rerouteNo="1" devices="tripinfo_bus_m3.2 routing_bus_m3.2" vType="DEFAULT_VEHTYPE" speedFactor="1.00" vaporized=""/>
    <tripinfo id="bus_c339.4" depart="55.20" departLane="-E2_0" departPos="12.10" departSpeed="0.00" departDelay="34.40" arrival="97.80" arrivalLane="-154204353_0" arrivalPos="167.74" arrivalSpeed="16.62" duration="42.60" routeLength="449.69" waitingTime="0.00" waitingCount="0" stopTime="0.00" timeLoss="11.97" rerouteNo="1" devices="tripinfo_bus_c339.4 routing_bus_c339.4" vType="DEFAULT_VEHTYPE" speedFactor="1.00" vaporized=""/>
    <tripinfo id="bus_m3.3" depart="43.60" departLane="28053297#0_0" departPos="12.10" departSpeed="0.00" departDelay="9.00" arrival="100.60" arrivalLane="1241633682_1" arrivalPos="85.12" arrivalSpeed="22.15" duration="57.00" routeLength="1006.43" waitingTime="0.00" waitingCount="0" stopTime="0.00" timeLoss="11.62" rerouteNo="1" devices="tripinfo_bus_m3.3 routing_bus_m3.3" vType="DEFAULT_VEHTYPE" speedFactor="1.00" vaporized=""/>
    <tripinfo id="bus_m3.4" depart="49.00" departLane="28053297#0_0" departPos="12.10" departSpeed="0.00" departDelay="0.40" arrival="107.00" arrivalLane="1241633682_1" arrivalPos="85.12" arrivalSpeed="22.16" duration="58.00" routeLength="1006.43" waitingTime="0.00" waitingCount="0" stopTime="0.00" timeLoss="12.63" rerouteNo="1" devices="tripinfo_bus_m3.4 routing_bus_m3.4" vType="DEFAULT_VEHTYPE" speedFactor="1.00" vaporized=""/>
    <tripinfo id="bus_c339.5" depart="67.00" departLane="-E2_0" departPos="12.10" departSpeed="0.00" departDelay="42.20" arrival="110.20" arrivalLane="-154204353_0" arrivalPos="167.74" arrivalSpeed="16.62" duration="43.20" routeLength="449.69" waitingTime="0.00" waitingCount="0" stopTime="0.00" timeLoss="12.49" rerouteNo="1" devices="tripinfo_bus_c339.5 routing_bus_c339.5" vType="DEFAULT_VEHTYPE" speedFactor="1.00" vaporized=""/>
    <tripinfo id="bus_391.0" depart="1.00" departLane="-E2_0" departPos="12.10" departSpeed="0.00" departDelay="0.00" arrival="114.20" arrivalLane="1241633682_1" arrivalPos="85.12" arrivalSpeed="22.19" duration="113.20" routeLength="1486.45" waitingTime="3.00" waitingCount="1" stopTime="0.00" timeLoss="27.92" rerouteNo="1" devices="tripinfo_bus_391.0 routing_bus_391.0" vType="DEFAULT_VEHTYPE" speedFactor="1.00" vaporized=""/>
    <tripinfo id="f_1.1" depart="59.40" departLane="154204353.882_0" departPos="12.10" departSpeed="0.00" departDelay="7.40" arrival="114.40" arrivalLane="-E20_1" arrivalPos="191.27" arrivalSpeed="13.77" duration="55.00" routeLength="463.91" waitingTime="4.60" waitingCount="1" stopTime="0.00" timeLoss="23.46" rerouteNo="1" devices="tripinfo_f_1.1 routing_f_1.1" vType="DEFAULT_VEHTYPE" speedFactor="1.00" vaporized=""/>
    <tripinfo id="bus_m3.5" depart="57.60" departLane="28053297#0_0" departPos="12.10" departSpeed="0.00" departDelay="0.00" arrival="116.00" arrivalLane="1241633682_1" arrivalPos="85.12" arrivalSpeed="22.12" duration="58.40" routeLength="1006.43" waitingTime="0.00" waitingCount="0" stopTime="0.00" timeLoss="12.92" rerouteNo="1" devices="tripinfo_bus_m3.5 routing_bus_m3.5" vType="DEFAULT_VEHTYPE" speedFactor="1.00" vaporized=""/>
    <tripinfo id="f_1.3" depart="70.60" departLane="154204353.882_0" departPos="12.10" departSpeed="0.00" departDelay="15.00" arrival="116.20" arrivalLane="-E20_2" arrivalPos="191.27" arrivalSpeed="13.88" duration="45.60" routeLength="463.91" waitingTime="0.00" waitingCount="0" stopTime="0.00" timeLoss="14.08" rerouteNo="1" devices="tripinfo_f_1.3 routing_f_1.3" vType="DEFAULT_VEHTYPE" speedFactor="1.00" vaporized=""/>
    <tripinfo id="f_1.4" depart="76.20" departLane="154204353.882_0" departPos="12.10" departSpeed="0.00" departDelay="11.80" arrival="120.80" arrivalLane="-E20_2" arrivalPos="191.27" arrivalSpeed="13.84" duration="44.60" routeLength="463.91" waitingTime="0.00" waitingCount="0" stopTime="0.00" timeLoss="13.00" rerouteNo="1" devices="tripinfo_f_1.4 routing_f_1.4" vType="DEFAULT_VEHTYPE" speedFactor="1.00" vaporized=""/>
    <tripinfo id="f_1.5" depart="81.80" departLane="154204353.882_0" departPos="12.10" departSpeed="0.00" departDelay="13.40" arrival="125.00" arrivalLane="-E20_2" arrivalPos="191.27" arrivalSpeed="13.89" duration="43.20" routeLength="463.91" waitingTime="0.00" waitingCount="0" stopTime="0.00" timeLoss="11.59" rerouteNo="1" devices="tripinfo_f_1.5 routing_f_1.5" vType="DEFAULT_VEHTYPE" speedFactor="1.00" vaporized=""/>
    <tripinfo id="f_1.0" depart="53.80" departLane="154204353.882_0" departPos="12.10" departSpeed="0.00" departDelay="2.20" arrival="130.80" arrivalLane="-E20_3" arrivalPos="191.27" arrivalSpeed="13.77" duration="77.00" routeLength="464.49" waitingTime="25.40" waitingCount="2" stopTime="0.00" timeLoss="45.36" rerouteNo="1" devices="tripinfo_f_1.0 routing_f_1.0" vType="DEFAULT_VEHTYPE" speedFactor="1.00" vaporized=""/>
    <tripinfo id="bus_m3.6" depart="75.20" departLane="28053297#0_0" departPos="12.10" departSpeed="0.00" departDelay="0.00" arrival="132.40" arrivalLane="1241633682_1" arrivalPos="85.12" arrivalSpeed="22.14" duration="57.20" routeLength="1006.43" waitingTime="0.00" waitingCount="0" stopTime="0.00" timeLoss="11.90" rerouteNo="1" devices="tripinfo_bus_m3.6 routing_bus_m3.6" vType="DEFAULT_VEHTYPE" speedFactor="1.00" vaporized=""/>
    <tripinfo id="bus_155.0" depart="17.80" departLane="-E2_0" departPos="12.10" departSpeed="0.00" departDelay="12.20" arrival="134.60" arrivalLane="430045512#0_0" arrivalPos="367.54" arrivalSpeed="16.65" duration="116.80" routeLength="1546.65" waitingTime="0.00" waitingCount="0" stopTime="0.00" timeLoss="18.69" rerouteNo="1" devices="tripinfo_bus_155.0 routing_bus_155.0" vType="DEFAULT_VEHTYPE" speedFactor="1.00" vaporized=""/>
    <tripinfo id="bus_m3.7" depart="80.60" departLane="28053297#0_0" departPos="12.10" departSpeed="0.00" departDelay="4.00" arrival="138.40" arrivalLane="1241633682_1" arrivalPos="85.12" arrivalSpeed="22.17" duration="57.80" routeLength="1006.43" waitingTime="0.00" waitingCount="0" stopTime="0.00" timeLoss="12.37" rerouteNo="1" devices="tripinfo_bus_m3.7 routing_bus_m3.7" vType="DEFAULT_VEHTYPE" speedFactor="1.00" vaporized=""/>
    <tripinfo id="f_1.2" depart="65.00" departLane="154204353.882_0" departPos="12.10" departSpeed="0.00" departDelay="11.00" arrival="139.20" arrivalLane="-E20_2" arrivalPos="191.27" arrivalSpeed="13.87" duration="74.20" routeLength="463.91" waitingTime="13.40" waitingCount="2" stopTime="0.00" timeLoss="42.64" rerouteNo="1" devices="tripinfo_f_1.2 routing_f_1.2" vType="DEFAULT_VEHTYPE" speedFactor="1.00" vaporized=""/>
    <tripinfo id="f_0.0" depart="0.00" departLane="1272473366_0" departPos="12.10" departSpeed="0.00" departDelay="0.00" arrival="140.40" arrivalLane="-E20_1" arrivalPos="191.27" arrivalSpeed="13.84" duration="140.40" routeLength="1006.21" waitingTime="53.40" waitingCount="1" stopTime="0.00" timeLoss="77.16" rerouteNo="1" devices="tripinfo_f_0.0 routing_f_0.0" vType="DEFAULT_VEHTYPE" speedFactor="1.00" vaporized=""/>
    <tripinfo id="f_0.2" depart="11.40" departLane="1272473366_0" departPos="12.10" departSpeed="0.00" departDelay="5.00" arrival="142.60" arrivalLane="-E20_1" arrivalPos="191.27" arrivalSpeed="13.82" duration="131.20" routeLength="1006.21" waitingTime="40.40" waitingCount="1" stopTime="0.00" timeLoss="68.13" rerouteNo="1" devices="tripinfo_f_0.2 routing_f_0.2" vType="DEFAULT_VEHTYPE" speedFactor="1.00" vaporized=""/>
    <tripinfo id="f_0.1" depart="5.80" departLane="1272473366_0" departPos="12.10" departSpeed="0.00" departDelay="1.80" arrival="143.40" arrivalLane="-E20_2" arrivalPos="191.27" arrivalSpeed="13.79" duration="137.60" routeLength="1006.21" waitingTime="49.60" waitingCount="2" stopTime="0.00" timeLoss="74.44" rerouteNo="1" devices="tripinfo_f_0.1 routing_f_0.1" vType="DEFAULT_VEHTYPE" speedFactor="1.00" vaporized=""/>
    <tripinfo id="bus_m3.8" depart="86.00" departLane="28053297#0_0" departPos="12.10" departSpeed="0.00" departDelay="8.60" arrival="143.60" arrivalLane="1241633682_1" arrivalPos="85.12" arrivalSpeed="22.21" duration="57.60" routeLength="1006.43" waitingTime="0.00" waitingCount="0" stopTime="0.00" timeLoss="12.18" rerouteNo="1" devices="tripinfo_bus_m3.8 routing_bus_m3.8" vType="DEFAULT_VEHTYPE" speedFactor="1.00" vaporized=""/>
    <tripinfo id="f_0.4" depart="35.20" departLane="1272473366_0" departPos="12.10" departSpeed="0.00" departDelay="0.00" arrival="144.80" arrivalLane="-E20_1" arrivalPos="191.27" arrivalSpeed="13.82" duration="109.60" routeLength="1006.21" waitingTime="18.20" waitingCount="1" stopTime="0.00" timeLoss="46.42" rerouteNo="1" devices="tripinfo_f_0.4 routing_f_0.4" vType="DEFAULT_VEHTYPE" speedFactor="1.00" vaporized=""/>
    <tripinfo id="f_0.3" depart="17.40" departLane="1272473366_0" departPos="12.10" departSpeed="0.00" departDelay="0.00" arrival="145.40" arrivalLane="-E20_2" arrivalPos="191.27" arrivalSpeed="13.89" duration="128.00" routeLength="1006.21" waitingTime="34.60" waitingCount="2" stopTime="0.00" timeLoss="64.89" rerouteNo="1" devices="tripinfo_f_0.3 routing_f_0.3" vType="DEFAULT_VEHTYPE" speedFactor="1.00" vaporized=""/>
    <tripinfo id="f_0.5" depart="40.60" departLane="1272473366_0" departPos="12.10" departSpeed="0.00" departDelay="0.60" arrival="146.80" arrivalLane="-E20_1" arrivalPos="191.27" arrivalSpeed="13.80" duration="106.20" routeLength="1006.21" waitingTime="14.20" waitingCount="1" stopTime="0.00" timeLoss="43.05" rerouteNo="1" devices="tripinfo_f_0.5 routing_f_0.5" vType="DEFAULT_VEHTYPE" speedFactor="1.00" vaporized=""/>
    <tripinfo id="bus_391_1.0" depart="3.00" departLane="430045516_0" departPos="12.10" departSpeed="0.00" departDelay="0.00" arrival="147.60" arrivalLane="-E20_2" arrivalPos="191.27" arrivalSpeed="13.85" duration="144.60" routeLength="1496.70" waitingTime="25.20" waitingCount="1" stopTime="0.00" timeLoss="54.34" rerouteNo="1" devices="tripinfo_bus_391_1.0 routing_bus_391_1.0" vType="DEFAULT_VEHTYPE" speedFactor="1.00" vaporized=""/>
    <tripinfo id="f_0.6" depart="47.80" departLane="1272473366_0" departPos="12.10" departSpeed="0.00" departDelay="0.00" arrival="148.80" arrivalLane="-E20_1" arrivalPos="191.27" arrivalSpeed="13.89" duration="101.00" routeLength="1006.21" waitingTime="8.80" waitingCount="1" stopTime="0.00" timeLoss="37.91" rerouteNo="1" devices="tripinfo_f_0.6 routing_f_0.6" vType="DEFAULT_VEHTYPE" speedFactor="1.00" vaporized=""/>
    <tripinfo id="bus_m3.9" depart="91.60" departLane="28053297#0_0" departPos="12.10" departSpeed="0.00" departDelay="4.20" arrival="149.20" arrivalLane="1241633682_1" arrivalPos="85.12" arrivalSpeed="22.13" duration="57.60" routeLength="1006.43" waitingTime="0.00" waitingCount="0" stopTime="0.00" timeLoss="12.18" rerouteNo="1" devices="tripinfo_bus_m3.9 routing_bus_m3.9" vType="DEFAULT_VEHTYPE" speedFactor="1.00" vaporized=""/>
    <tripinfo id="bus_c339.6" depart="110.80" departLane="-E2_0" departPos="12.10" departSpeed="0.00" departDelay="65.20" arrival="153.40" arrivalLane="-154204353_0" arrivalPos="167.74" arrivalSpeed="16.65" duration="42.60" routeLength="449.69" waitingTime="0.00" waitingCount="0" stopTime="0.00" timeLoss="12.06" rerouteNo="1" devices="tripinfo_bus_c339.6 routing_bus_c339.6" vType="DEFAULT_VEHTYPE" speedFactor="1.00" vaporized=""/>
    <tripinfo id="bus_m3.10" depart="102.20" departLane="28053297#0_0" departPos="12.10" departSpeed="0.00" departDelay="0.00" arrival="160.00" arrivalLane="1241633682_1" arrivalPos="85.12" arrivalSpeed="22.21" duration="57.80" routeLength="1006.43" waitingTime="0.00" waitingCount="0" stopTime="0.00" timeLoss="12.37" rerouteNo="1" devices="tripinfo_bus_m3.10 routing_bus_m3.10" vType="DEFAULT_VEHTYPE" speedFactor="1.00" vaporized=""/>
    <tripinfo id="bus_155.1" depart="25.80" departLane="-E2_0" departPos="12.10" departSpeed="0.00" departDelay="14.80" arrival="160.80" arrivalLane="430045512#0_0" arrivalPos="367.54" arrivalSpeed="16.56" duration="135.00" routeLength="1546.65" waitingTime="6.00" waitingCount="1" stopTime="0.00" timeLoss="36.77" rerouteNo="1" devices="tripinfo_bus_155.1 routing_bus_155.1" vType="DEFAULT_VEHTYPE" speedFactor="1.00" vaporized=""/>
    <tripinfo id="bus_m3.11" depart="107.60" departLane="28053297#0_0" departPos="12.10" departSpeed="0.00" departDelay="3.80" arrival="165.20" arrivalLane="1241633682_1" arrivalPos="85.12" arrivalSpeed="22.12" duration="57.60" routeLength="1006.43" waitingTime="0.00" waitingCount="0" stopTime="0.00" timeLoss="12.16" rerouteNo="1" devices="tripinfo_bus_m3.11 routing_bus_m3.11" vType="DEFAULT_VEHTYPE" speedFactor="1.00" vaporized=""/>
    <tripinfo id="bus_c339.7" depart="126.20" departLane="-E2_0" departPos="12.10" departSpeed="0.00" departDelay="75.00" arrival="169.00" arrivalLane="-154204353_0" arrivalPos="167.74" arrivalSpeed="16.61" duration="42.80" routeLength="449.69" waitingTime="0.00" waitingCount="0" stopTime="0.00" timeLoss="12.06" rerouteNo="1" devices="tripinfo_bus_c339.7 routing_bus_c339.7" vType="DEFAULT_VEHTYPE" speedFactor="1.00" vaporized=""/>
    <tripinfo id="bus_m3.12" depart="113.00" departLane="28053297#0_0" departPos="12.10" departSpeed="0.00" departDelay="5.20" arrival="170.60" arrivalLane="1241633682_1" arrivalPos="85.12" arrivalSpeed="22.11" duration="57.60" routeLength="1006.43" waitingTime="0.00" waitingCount="0" stopTime="0.00" timeLoss="12.13" rerouteNo="1" devices="tripinfo_bus_m3.12 routing_bus_m3.12" vType="DEFAULT_VEHTYPE" speedFactor="1.00" vaporized=""/>
    <tripinfo id="bus_m3.13" depart="133.20" departLane="28053297#0_0" departPos="12.10" departSpeed="0.00" departDelay="0.00" arrival="191.00" arrivalLane="1241633682_1" arrivalPos="85.12" arrivalSpeed="22.20" duration="57.80" routeLength="1006.43" waitingTime="0.00" waitingCount="0" stopTime="0.00" timeLoss="12.35" rerouteNo="1" devices="tripinfo_bus_m3.13 routing_bus_m3.13" vType="DEFAULT_VEHTYPE" speedFactor="1.00" vaporized=""/>
    <tripinfo id="f_1.7" depart="92.80" departLane="154204353.882_0" departPos="12.10" departSpeed="0.00" departDelay="14.80" arrival="204.40" arrivalLane="-E20_1" arrivalPos="191.27" arrivalSpeed="13.88" duration="111.60" routeLength="463.91" waitingTime="60.60" waitingCount="1" stopTime="0.00" timeLoss="80.07" rerouteNo="1" devices="tripinfo_f_1.7 routing_f_1.7" vType="DEFAULT_VEHTYPE" speedFactor="1.00" vaporized=""/>
    <tripinfo id="f_1.9" depart="103.80" departLane="154204353.882_0" departPos="12.10" departSpeed="0.00" departDelay="4.20" arrival="206.20" arrivalLane="-E20_2" arrivalPos="191.27" arrivalSpeed="13.83" duration="102.40" routeLength="463.91" waitingTime="48.60" waitingCount="1" stopTime="0.00" timeLoss="70.94" rerouteNo="1" devices="tripinfo_f_1.9 routing_f_1.9" vType="DEFAULT_VEHTYPE" speedFactor="1.00" vaporized=""/>
    <tripinfo id="bus_391.1" depart="23.40" departLane="-E2_0" departPos="12.10" departSpeed="0.00" departDelay="13.40" arrival="206.40" arrivalLane="1241633682_1" arrivalPos="85.12" arrivalSpeed="22.14" duration="183.00" routeLength="1486.45" waitingTime="70.40" waitingCount="1" stopTime="0.00" timeLoss="97.84" rerouteNo="1" devices="tripinfo_bus_391.1 routing_bus_391.1" vType="DEFAULT_VEHTYPE" speedFactor="1.00" vaporized=""/>
    <tripinfo id="bus_m3.14" depart="147.60" departLane="28053297#0_0" departPos="12.10" departSpeed="0.00" departDelay="0.00" arrival="208.20" arrivalLane="1241633682_1" arrivalPos="85.12" arrivalSpeed="22.14" duration="60.60" routeLength="1006.43" waitingTime="0.00" waitingCount="0" stopTime="0.00" timeLoss="15.12" rerouteNo="1" devices="tripinfo_bus_m3.14 routing_bus_m3.14" vType="DEFAULT_VEHTYPE" speedFactor="1.00" vaporized=""/>
    <tripinfo id="f_1.11" depart="124.60" departLane="154204353.882_0" departPos="12.10" departSpeed="0.00" departDelay="0.00" arrival="208.60" arrivalLane="-E20_2" arrivalPos="191.27" arrivalSpeed="13.79" duration="84.00" routeLength="463.91" waitingTime="29.40" waitingCount="1" stopTime="0.00" timeLoss="52.49" rerouteNo="1" devices="tripinfo_f_1.11 routing_f_1.11" vType="DEFAULT_VEHTYPE" speedFactor="1.00" vaporized=""/>
    <tripinfo id="bus_m3.15" depart="153.00" departLane="28053297#0_0" departPos="12.10" departSpeed="0.00" departDelay="3.40" arrival="210.80" arrivalLane="1241633682_1" arrivalPos="85.12" arrivalSpeed="22.21" duration="57.80" routeLength="1006.43" waitingTime="0.00" waitingCount="0" stopTime="0.00" timeLoss="12.35" rerouteNo="1" devices="tripinfo_bus_m3.15 routing_bus_m3.15" vType="DEFAULT_VEHTYPE" speedFactor="1.00" vaporized=""/>
    <tripinfo id="t_7" depart="8.80" departLane="264292224_0" departPos="12.10" departSpeed="0.00" departDelay="8.80" arrival="212.20" arrivalLane="594899548_0" arrivalPos="256.03" arrivalSpeed="22.16" duration="203.40" routeLength="336.86" waitingTime="166.60" waitingCount="3" stopTime="0.00" timeLoss="186.79" rerouteNo="0" devices="tripinfo_t_7 routing_t_7" vType="DEFAULT_VEHTYPE" speedFactor="1.00" vaporized=""/>
    <tripinfo id="f_1.12" depart="153.40" departLane="154204353.882_0" departPos="12.10" departSpeed="0.00" departDelay="2.00" arrival="213.40" arrivalLane="-E20_2" arrivalPos="191.27" arrivalSpeed="13.80" duration="60.00" routeLength="463.91" waitingTime="2.60" waitingCount="1" stopTime="0.00" timeLoss="28.35" rerouteNo="1" devices="tripinfo_f_1.12 routing_f_1.12" vType="DEFAULT_VEHTYPE" speedFactor="1.00" vaporized=""/>
    <tripinfo id="bus_155.2" depart="72.60" departLane="-E2_0" departPos="12.10" departSpeed="0.00" departDelay="47.00" arrival="220.60" arrivalLane="430045512#0_0" arrivalPos="367.54" arrivalSpeed="16.63" duration="148.00" routeLength="1546.65" waitingTime="21.20" waitingCount="1" stopTime="0.00" timeLoss="49.91" rerouteNo="1" devices="tripinfo_bus_155.2 routing_bus_155.2" vType="DEFAULT_VEHTYPE" speedFactor="1.00" vaporized=""/>
    <tripinfo id="f_1.6" depart="87.20" departLane="154204353.882_0" departPos="12.10" departSpeed="0.00" departDelay="16.80" arrival="220.60" arrivalLane="-E20_2" arrivalPos="191.27" arrivalSpeed="13.85" duration="133.40" routeLength="463.91" waitingTime="80.80" waitingCount="2" stopTime="0.00" timeLoss="101.77" rerouteNo="1" devices="tripinfo_f_1.6 routing_f_1.6" vType="DEFAULT_VEHTYPE" speedFactor="1.00" vaporized=""/>
    <tripinfo id="bus_155.3" depart="78.20" departLane="-E2_0" departPos="12.10" departSpeed="0.00" departDelay="46.80" arrival="222.60" arrivalLane="430045512#0_0" arrivalPos="367.54" arrivalSpeed="16.57" duration="144.40" routeLength="1546.65" waitingTime="14.00" waitingCount="1" stopTime="0.00" timeLoss="46.29" rerouteNo="1" devices="tripinfo_bus_155.3 routing_bus_155.3" vType="DEFAULT_VEHTYPE" speedFactor="1.00" vaporized=""/>
    <tripinfo id="bus_155.4" depart="83.80" departLane="-E2_0" departPos="12.10" departSpeed="0.00" departDelay="50.40" arrival="224.80" arrivalLane="430045512#0_0" arrivalPos="367.54" arrivalSpeed="16.59" duration="141.00" routeLength="1546.65" waitingTime="9.80" waitingCount="1" stopTime="0.00" timeLoss="42.77" rerouteNo="1" devices="tripinfo_bus_155.4 routing_bus_155.4" vType="DEFAULT_VEHTYPE" speedFactor="1.00" vaporized=""/>
    <tripinfo id="f_1.8" depart="98.20" departLane="154204353.882_0" departPos="12.10" departSpeed="0.00" departDelay="12.60" arrival="227.80" arrivalLane="-E20_3" arrivalPos="191.27" arrivalSpeed="13.83" duration="129.60" routeLength="464.49" waitingTime="67.60" waitingCount="2" stopTime="0.00" timeLoss="98.00" rerouteNo="1" devices="tripinfo_f_1.8 routing_f_1.8" vType="DEFAULT_VEHTYPE" speedFactor="1.00" vaporized=""/>
    <tripinfo id="f_0.7" depart="57.00" departLane="1272473366_0" departPos="12.10" departSpeed="0.00" departDelay="0.00" arrival="230.60" arrivalLane="-E20_1" arrivalPos="191.27" arrivalSpeed="13.84" duration="173.60" routeLength="1006.21" waitingTime="76.20" waitingCount="4" stopTime="0.00" timeLoss="110.46" rerouteNo="1" devices="tripinfo_f_0.7 routing_f_0.7" vType="DEFAULT_VEHTYPE" speedFactor="1.00" vaporized=""/>
    <tripinfo id="bus_800_1.2" depart="36.60" departLane="430045516_0" departPos="12.10" departSpeed="0.00" departDelay="7.40" arrival="232.60" arrivalLane="-E20_1" arrivalPos="191.27" arrivalSpeed="13.89" duration="196.00" routeLength="1496.70" waitingTime="65.40" waitingCount="1" stopTime="0.00" timeLoss="105.79" rerouteNo="1" devices="tripinfo_bus_800_1.2 routing_bus_800_1.2" vType="DEFAULT_VEHTYPE" speedFactor="1.00" vaporized=""/>
    <tripinfo id="f_0.8" depart="72.00" departLane="1272473366_0" departPos="12.10" departSpeed="0.00" departDelay="0.00" arrival="234.80" arrivalLane="-E20_1" arrivalPos="191.27" arrivalSpeed="13.83" duration="162.80" routeLength="1006.21" waitingTime="63.80" waitingCount="1" stopTime="0.00" timeLoss="99.55" rerouteNo="1" devices="tripinfo_f_0.8 routing_f_0.8" vType="DEFAULT_VEHTYPE" speedFactor="1.00" vaporized=""/>
    <tripinfo id="f_1.10" depart="110.60" departLane="154204353.882_0" departPos="12.10" departSpeed="0.00" departDelay="0.00" arrival="235.20" arrivalLane="-E20_2" arrivalPos="191.27" arrivalSpeed="13.85" duration="124.60" routeLength="463.91" waitingTime="57.40" waitingCount="3" stopTime="0.00" timeLoss="93.13" rerouteNo="1" devices="tripinfo_f_1.10 routing_f_1.10" vType="DEFAULT_VEHTYPE" speedFactor="1.00" vaporized=""/>
    <tripinfo id="bus_m3.16" depart="179.00" departLane="28053297#0_0" departPos="12.10" departSpeed="0.00" departDelay="0.00" arrival="236.20" arrivalLane="1241633682_1" arrivalPos="85.12" arrivalSpeed="22.12" duration="57.20" routeLength="1006.43" waitingTime="0.00" waitingCount="0" stopTime="0.00" timeLoss="11.90" rerouteNo="1" devices="tripinfo_bus_m3.16 routing_bus_m3.16" vType="DEFAULT_VEHTYPE" speedFactor="1.00" vaporized=""/>
    <tripinfo id="f_0.9" depart="77.60" departLane="1272473366_0" departPos="12.10" departSpeed="0.00" departDelay="3.20" arrival="236.80" arrivalLane="-E20_1" arrivalPos="191.27" arrivalSpeed="13.87" duration="159.20" routeLength="1006.21" waitingTime="62.40" waitingCount="1" stopTime="0.00" timeLoss="96.00" rerouteNo="1" devices="tripinfo_f_0.9 routing_f_0.9" vType="DEFAULT_VEHTYPE" speedFactor="1.00" vaporized=""/>
    <tripinfo id="f_0.10" depart="83.20" departLane="1272473366_0" departPos="12.10" departSpeed="0.00" departDelay="2.80" arrival="238.80" arrivalLane="-E20_1" arrivalPos="191.27" arrivalSpeed="13.87" duration="155.60" routeLength="1006.21" waitingTime="61.00" waitingCount="1" stopTime="0.00" timeLoss="92.46" rerouteNo="1" devices="tripinfo_f_0.10 routing_f_0.10" vType="DEFAULT_VEHTYPE" speedFactor="1.00" vaporized=""/>
    <tripinfo id="bus_391_1.1" depart="9.40" departLane="430045516_0" departPos="12.10" departSpeed="0.00" departDelay="0.00" arrival="239.60" arrivalLane="-E20_2" arrivalPos="191.27" arrivalSpeed="13.82" duration="230.20" routeLength="1496.70" waitingTime="101.60" waitingCount="3" stopTime="0.00" timeLoss="139.91" rerouteNo="1" devices="tripinfo_bus_391_1.1 routing_bus_391_1.1" vType="DEFAULT_VEHTYPE" speedFactor="1.00" vaporized=""/>
    <tripinfo id="bus_m3.17" depart="198.60" departLane="28053297#0_0" departPos="12.10" departSpeed="0.00" departDelay="0.00" arrival="256.00" arrivalLane="1241633682_1" arrivalPos="85.12" arrivalSpeed="22.18" duration="57.40" routeLength="1006.43" waitingTime="0.00" waitingCount="0" stopTime="0.00" timeLoss="12.00" rerouteNo="1" devices="tripinfo_bus_m3.17 routing_bus_m3.17" vType="DEFAULT_VEHTYPE" speedFactor="1.00" vaporized=""/>
    <tripinfo id="bus_800.0" depart="34.00" departLane="-E2_0" departPos="12.10" departSpeed="0.00" departDelay="20.80" arrival="264.00" arrivalLane="430045512#0_1" arrivalPos="367.54" arrivalSpeed="16.56" duration="230.00" routeLength="1994.37" waitingTime="63.40" waitingCount="2" stopTime="0.00" timeLoss="114.85" rerouteNo="1" devices="tripinfo_bus_800.0 routing_bus_800.0" vType="DEFAULT_VEHTYPE" speedFactor="1.00" vaporized=""/>
    <tripinfo id="bus_m3.18" depart="219.60" departLane="28053297#0_0" departPos="12.10" departSpeed="0.00" departDelay="0.00" arrival="277.20" arrivalLane="1241633682_1" arrivalPos="85.12" arrivalSpeed="22.16" duration="57.60" routeLength="1006.43" waitingTime="0.00" waitingCount="0" stopTime="0.00" timeLoss="12.30" rerouteNo="1" devices="tripinfo_bus_m3.18 routing_bus_m3.18" vType="DEFAULT_VEHTYPE" speedFactor="1.00" vaporized=""/>