<?xml version="1.0" encoding="UTF-8"?>

<!-- generated on 2026-05-27T16:40:50.641065+03:00 by Eclipse SUMO GUI v1_26_0+1000-c71e510aa5d
<sumoConfiguration xmlns:xsi="http://www.w3.org/2001/XMLSchema-instance" xsi:noNamespaceSchemaLocation="http://sumo.dlr.de/xsd/sumoConfiguration.xsd">

    <input>
        <net-file value="/mnt/extra/git_projects/Sumo_repo/2026-05-03-12-56-33/osm.net.xml.gz"/>
        <route-files value="/mnt/extra/git_projects/Sumo_repo/2026-05-03-12-56-33/osm.passenger.trips.xml"/>
        <additional-files value="/mnt/extra/git_projects/Sumo_repo/2026-05-03-12-56-33/osm.poly.xml.gz,/mnt/extra/git_projects/Sumo_repo/2026-05-03-12-56-33/osm_stops.add.xml,/mnt/extra/git_projects/Sumo_repo/2026-05-03-12-56-33/output.add.xml,/mnt/extra/git_projects/Sumo_repo/2026-05-03-12-56-33/Narodnoe%20Opolchenie.dat.add.xml"/>
    </input>

    <output>
        <tripinfo-output value="/mnt/extra/git_projects/Sumo_repo/2026-05-03-12-56-33/tripinfos.xml"/>
        <stop-output value="/mnt/extra/git_projects/Sumo_repo/2026-05-03-12-56-33/stopinfos.xml"/>
        <statistic-output value="/mnt/extra/git_projects/Sumo_repo/2026-05-03-12-56-33/stats.xml"/>
    </output>

    <time>
        <step-length value="0.2"/>
    </time>

    <processing>
        <ignore-route-errors value="true"/>
        <tls.actuated.jam-threshold value="30"/>
    </processing>

    <routing>
        <device.rerouting.adaptation-steps value="18"/>
        <device.rerouting.adaptation-interval value="10"/>
    </routing>

    <report>
        <verbose value="true"/>
        <duration-log.statistics value="true"/>
        <no-step-log value="true"/>
    </report>

    <gui_only>
        <gui-settings-file value="/mnt/extra/git_projects/Sumo_repo/2026-05-03-12-56-33/osm.view.xml"/>
        <delay value="100"/>
    </gui_only>

</sumoConfiguration>
-->

<tripinfos xmlns:xsi="http://www.w3.org/2001/XMLSchema-instance" xsi:noNamespaceSchemaLocation="http://sumo.dlr.de/xsd/tripinfo_file.xsd">
    <tripinfo id="t_2" depart="0.00" departLane="131700468#5_0" departPos="12.10" departSpeed="0.00" departDelay="0.00" arrival="11.00" arrivalLane="264292224_0" arrivalPos="46.96" arrivalSpeed="10.05" duration="11.00" routeLength="57.88" waitingTime="0.00" waitingCount="0" stopTime="0.00" timeLoss="6.81" rerouteNo="0" devices="tripinfo_t_2 routing_t_2" vType="DEFAULT_VEHTYPE" speedFactor="1.00" vaporized=""/>
    <tripinfo id="t_6" depart="0.00" departLane="264292224_0" departPos="12.10" departSpeed="0.00" departDelay="0.00" arrival="19.60" arrivalLane="264292208_0" arrivalPos="99.32" arrivalSpeed="16.60" duration="19.60" routeLength="179.55" waitingTime="0.00" waitingCount="0" stopTime="0.00" timeLoss="8.03" rerouteNo="0" devices="tripinfo_t_6 routing_t_6" vType="DEFAULT_VEHTYPE" speedFactor="1.00" vaporized=""/>
    <tripinfo id="bus_m3.0" depart="26.80" departLane="28053297#0_0" departPos="12.10" departSpeed="0.00" departDelay="0.00" arrival="84.20" arrivalLane="1241633682_1" arrivalPos="85.12" arrivalSpeed="22.20" duration="57.40" routeLength="1006.43" waitingTime="0.00" waitingCount="0" stopTime="0.00" timeLoss="12.11" rerouteNo="1" devices="tripinfo_bus_m3.0 routing_bus_m3.0" vType="DEFAULT_VEHTYPE" speedFactor="1.00" vaporized=""/>
    <tripinfo id="bus_m3.1" depart="32.40" departLane="28053297#0_0" departPos="12.10" departSpeed="0.00" departDelay="2.80" arrival="89.80" arrivalLane="1241633682_1" arrivalPos="85.12" arrivalSpeed="22.19" duration="57.40" routeLength="1006.43" waitingTime="0.00" waitingCount="0" stopTime="0.00" timeLoss="12.06" rerouteNo="1" devices="tripinfo_bus_m3.1 routing_bus_m3.1" vType="DEFAULT_VEHTYPE" speedFactor="1.00" vaporized=""/>
    <tripinfo id="bus_m3.2" depart="38.00" departLane="28053297#0_0" departPos="12.10" departSpeed="0.00" departDelay="7.40" arrival="95.40" arrivalLane="1241633682_1" arrivalPos="85.12" arrivalSpeed="22.16" duration="57.40" routeLength="1006.43" waitingTime="0.00" waitingCount="0" stopTime="0.00" timeLoss="12.10" rerouteNo="1" devices="tripinfo_bus_m3.2 routing_bus_m3.2" vType="DEFAULT_VEHTYPE" speedFactor="1.00" vaporized=""/>
    <tripinfo id="bus_m3.3" depart="43.60" departLane="28053297#0_0" departPos="12.10" departSpeed="0.00" departDelay="9.00" arrival="100.60" arrivalLane="1241633682_1" arrivalPos="85.12" arrivalSpeed="22.17" duration="57.00" routeLength="1006.43" waitingTime="0.00" waitingCount="0" stopTime="0.00" timeLoss="11.67" rerouteNo="1" devices="tripinfo_bus_m3.3 routing_bus_m3.3" vType="DEFAULT_VEHTYPE" speedFactor="1.00" vaporized=""/>
    <tripinfo id="bus_m3.4" depart="49.00" departLane="28053297#0_0" departPos="12.10" departSpeed="0.00" departDelay="0.40" arrival="107.00" arrivalLane="1241633682_1" arrivalPos="85.12" arrivalSpeed="22.17" duration="58.00" routeLength="1006.43" waitingTime="0.00" waitingCount="0" stopTime="0.00" timeLoss="12.52" rerouteNo="1" devices="tripinfo_bus_m3.4 routing_bus_m3.4" vType="DEFAULT_VEHTYPE" speedFactor="1.00" vaporized=""/>
    <tripinfo id="f_1.1" depart="57.20" departLane="154204353.882_0" departPos="12.10" departSpeed="0.00" departDelay="5.20" arrival="114.40" arrivalLane="-E20_1" arrivalPos="191.27" arrivalSpeed="13.87" duration="57.20" routeLength="463.91" waitingTime="6.80" waitingCount="1" stopTime="0.00" timeLoss="25.71" rerouteNo="1" devices="tripinfo_f_1.1 routing_f_1.1" vType="DEFAULT_VEHTYPE" speedFactor="1.00" vaporized=""/>
    <tripinfo id="bus_m3.5" depart="57.60" departLane="28053297#0_0" departPos="12.10" departSpeed="0.00" departDelay="0.00" arrival="115.20" arrivalLane="1241633682_1" arrivalPos="85.12" arrivalSpeed="22.19" duration="57.60" routeLength="1006.43" waitingTime="0.00" waitingCount="0" stopTime="0.00" timeLoss="12.13" rerouteNo="1" devices="tripinfo_bus_m3.5 routing_bus_m3.5" vType="DEFAULT_VEHTYPE" speedFactor="1.00" vaporized=""/>
    <tripinfo id="f_1.3" depart="68.40" departLane="154204353.882_0" departPos="12.10" departSpeed="0.00" departDelay="12.80" arrival="116.40" arrivalLane="-E20_2" arrivalPos="191.27" arrivalSpeed="13.79" duration="48.00" routeLength="463.91" waitingTime="0.00" waitingCount="0" stopTime="0.00" timeLoss="16.36" rerouteNo="1" devices="tripinfo_f_1.3 routing_f_1.3" vType="DEFAULT_VEHTYPE" speedFactor="1.00" vaporized=""/>
    <tripinfo id="f_1.4" depart="74.00" departLane="154204353.882_0" departPos="12.10" departSpeed="0.00" departDelay="9.60" arrival="119.00" arrivalLane="-E20_2" arrivalPos="191.27" arrivalSpeed="13.80" duration="45.00" routeLength="463.91" waitingTime="0.00" waitingCount="0" stopTime="0.00" timeLoss="13.48" rerouteNo="1" devices="tripinfo_f_1.4 routing_f_1.4" vType="DEFAULT_VEHTYPE" speedFactor="1.00" vaporized=""/>
    <tripinfo id="f_1.5" depart="79.40" departLane="154204353.882_0" departPos="12.10" departSpeed="0.00" departDelay="11.00" arrival="123.20" arrivalLane="-E20_2" arrivalPos="191.27" arrivalSpeed="13.84" duration="43.80" routeLength="463.91" waitingTime="0.00" waitingCount="0" stopTime="0.00" timeLoss="12.22" rerouteNo="1" devices="tripinfo_f_1.5 routing_f_1.5" vType="DEFAULT_VEHTYPE" speedFactor="1.00" vaporized=""/>
    <tripinfo id="f_1.0" depart="51.60" departLane="154204353.882_0" departPos="12.10" departSpeed="0.00" departDelay="0.00" arrival="130.40" arrivalLane="-E20_3" arrivalPos="191.27" arrivalSpeed="13.84" duration="78.80" routeLength="464.49" waitingTime="27.80" waitingCount="2" stopTime="0.00" timeLoss="47.29" rerouteNo="1" devices="tripinfo_f_1.0 routing_f_1.0" vType="DEFAULT_VEHTYPE" speedFactor="1.00" vaporized=""/>
    <tripinfo id="bus_m3.6" depart="75.20" departLane="28053297#0_0" departPos="12.10" departSpeed="0.00" departDelay="0.00" arrival="132.60" arrivalLane="1241633682_1" arrivalPos="85.12" arrivalSpeed="22.21" duration="57.40" routeLength="1006.43" waitingTime="0.00" waitingCount="0" stopTime="0.00" timeLoss="12.00" rerouteNo="1" devices="tripinfo_bus_m3.6 routing_bus_m3.6" vType="DEFAULT_VEHTYPE" speedFactor="1.00" vaporized=""/>
    <tripinfo id="bus_m3.7" depart="80.60" departLane="28053297#0_0" departPos="12.10" departSpeed="0.00" departDelay="4.00" arrival="138.20" arrivalLane="1241633682_1" arrivalPos="85.12" arrivalSpeed="22.20" duration="57.60" routeLength="1006.43" waitingTime="0.00" waitingCount="0" stopTime="0.00" timeLoss="12.16" rerouteNo="1" devices="tripinfo_bus_m3.7 routing_bus_m3.7" vType="DEFAULT_VEHTYPE" speedFactor="1.00" vaporized=""/>
    <tripinfo id="f_1.2" depart="62.80" departLane="154204353.882_0" departPos="12.10" departSpeed="0.00" departDelay="8.80" arrival="139.00" arrivalLane="-E20_2" arrivalPos="191.27" arrivalSpeed="13.81" duration="76.20" routeLength="463.91" waitingTime="13.40" waitingCount="2" stopTime="0.00" timeLoss="44.61" rerouteNo="1" devices="tripinfo_f_1.2 routing_f_1.2" vType="DEFAULT_VEHTYPE" speedFactor="1.00" vaporized=""/>
    <tripinfo id="f_0.0" depart="0.00" departLane="1272473366_0" departPos="12.10" departSpeed="0.00" departDelay="0.00" arrival="140.40" arrivalLane="-E20_1" arrivalPos="191.27" arrivalSpeed="13.88" duration="140.40" routeLength="1006.21" waitingTime="53.40" waitingCount="1" stopTime="0.00" timeLoss="77.20" rerouteNo="1" devices="tripinfo_f_0.0 routing_f_0.0" vType="DEFAULT_VEHTYPE" speedFactor="1.00" vaporized=""/>
    <tripinfo id="f_0.2" depart="11.40" departLane="1272473366_0" departPos="12.10" departSpeed="0.00" departDelay="5.00" arrival="142.60" arrivalLane="-E20_1" arrivalPos="191.27" arrivalSpeed="13.83" duration="131.20" routeLength="1006.21" waitingTime="40.40" waitingCount="1" stopTime="0.00" timeLoss="67.97" rerouteNo="1" devices="tripinfo_f_0.2 routing_f_0.2" vType="DEFAULT_VEHTYPE" speedFactor="1.00" vaporized=""/>
    <tripinfo id="f_0.1" depart="5.80" departLane="1272473366_0" departPos="12.10" departSpeed="0.00" departDelay="1.80" arrival="143.00" arrivalLane="-E20_2" arrivalPos="191.27" arrivalSpeed="13.85" duration="137.20" routeLength="1006.21" waitingTime="49.20" waitingCount="2" stopTime="0.00" timeLoss="74.06" rerouteNo="1" devices="tripinfo_f_0.1 routing_f_0.1" vType="DEFAULT_VEHTYPE" speedFactor="1.00" vaporized=""/>
    <tripinfo id="bus_m3.8" depart="86.00" departLane="28053297#0_0" departPos="12.10" departSpeed="0.00" departDelay="8.60" arrival="143.80" arrivalLane="1241633682_1" arrivalPos="85.12" arrivalSpeed="22.20" duration="57.80" routeLength="1006.43" waitingTime="0.00" waitingCount="0" stopTime="0.00" timeLoss="12.49" rerouteNo="1" devices="tripinfo_bus_m3.8 routing_bus_m3.8" vType="DEFAULT_VEHTYPE" speedFactor="1.00" vaporized=""/>
    <tripinfo id="f_0.4" depart="35.20" departLane="1272473366_0" departPos="12.10" departSpeed="0.00" departDelay="0.00" arrival="144.60" arrivalLane="-E20_1" arrivalPos="191.27" arrivalSpeed="13.78" duration="109.40" routeLength="1006.21" waitingTime="18.20" waitingCount="1" stopTime="0.00" timeLoss="46.25" rerouteNo="1" devices="tripinfo_f_0.4 routing_f_0.4" vType="DEFAULT_VEHTYPE" speedFactor="1.00" vaporized=""/>
    <tripinfo id="f_0.3" depart="17.40" departLane="1272473366_0" departPos="12.10" departSpeed="0.00" departDelay="0.00" arrival="145.00" arrivalLane="-E20_2" arrivalPos="191.27" arrivalSpeed="13.86" duration="127.60" routeLength="1006.21" waitingTime="34.00" waitingCount="1" stopTime="0.00" timeLoss="64.50" rerouteNo="1" devices="tripinfo_f_0.3 routing_f_0.3" vType="DEFAULT_VEHTYPE" speedFactor="1.00" vaporized=""/>
    <tripinfo id="f_1.6" depart="84.80" departLane="154204353.882_0" departPos="12.10" departSpeed="0.00" departDelay="14.40" arrival="146.20" arrivalLane="-E20_3" arrivalPos="191.27" arrivalSpeed="13.79" duration="61.40" routeLength="464.49" waitingTime="6.80" waitingCount="1" stopTime="0.00" timeLoss="29.80" rerouteNo="1" devices="tripinfo_f_1.6 routing_f_1.6" vType="DEFAULT_VEHTYPE" speedFactor="1.00" vaporized=""/>
    <tripinfo id="f_0.5" depart="40.80" departLane="1272473366_0" departPos="12.10" departSpeed="0.00" departDelay="0.80" arrival="146.60" arrivalLane="-E20_1" arrivalPos="191.27" arrivalSpeed="13.84" duration="105.80" routeLength="1006.21" waitingTime="14.00" waitingCount="1" stopTime="0.00" timeLoss="42.68" rerouteNo="1" devices="tripinfo_f_0.5 routing_f_0.5" vType="DEFAULT_VEHTYPE" speedFactor="1.00" vaporized=""/>
    <tripinfo id="bus_391_1.0" depart="3.00" departLane="430045516_0" departPos="12.10" departSpeed="0.00" departDelay="0.00" arrival="147.20" arrivalLane="-E20_2" arrivalPos="191.27" arrivalSpeed="13.78" duration="144.20" routeLength="1496.70" waitingTime="25.20" waitingCount="1" stopTime="0.00" timeLoss="53.84" rerouteNo="1" devices="tripinfo_bus_391_1.0 routing_bus_391_1.0" vType="DEFAULT_VEHTYPE" speedFactor="1.00" vaporized=""/>
    <tripinfo id="f_0.6" depart="47.80" departLane="1272473366_0" departPos="12.10" departSpeed="0.00" departDelay="0.00" arrival="148.60" arrivalLane="-E20_1" arrivalPos="191.27" arrivalSpeed="13.88" duration="100.80" routeLength="1006.21" waitingTime="9.00" waitingCount="1" stopTime="0.00" timeLoss="37.75" rerouteNo="1" devices="tripinfo_f_0.6 routing_f_0.6" vType="DEFAULT_VEHTYPE" speedFactor="1.00" vaporized=""/>
    <tripinfo id="bus_m3.9" depart="91.60" departLane="28053297#0_0" departPos="12.10" departSpeed="0.00" departDelay="4.20" arrival="149.20" arrivalLane="1241633682_1" arrivalPos="85.12" arrivalSpeed="22.14" duration="57.60" routeLength="1006.43" waitingTime="0.00" waitingCount="0" stopTime="0.00" timeLoss="12.20" rerouteNo="1" devices="tripinfo_bus_m3.9 routing_bus_m3.9" vType="DEFAULT_VEHTYPE" speedFactor="1.00" vaporized=""/>
    <tripinfo id="bus_m3.10" depart="102.20" departLane="28053297#0_0" departPos="12.10" departSpeed="0.00" departDelay="0.00" arrival="160.00" arrivalLane="1241633682_1" arrivalPos="85.12" arrivalSpeed="22.19" duration="57.80" routeLength="1006.43" waitingTime="0.00" waitingCount="0" stopTime="0.00" timeLoss="12.40" rerouteNo="1" devices="tripinfo_bus_m3.10 routing_bus_m3.10" vType="DEFAULT_VEHTYPE" speedFactor="1.00" vaporized=""/>
    <tripinfo id="bus_m3.11" depart="107.80" departLane="28053297#0_0" departPos="12.10" departSpeed="0.00" departDelay="4.00" arrival="165.40" arrivalLane="1241633682_1" arrivalPos="85.12" arrivalSpeed="22.15" duration="57.60" routeLength="1006.43" waitingTime="0.00" waitingCount="0" stopTime="0.00" timeLoss="12.30" rerouteNo="1" devices="tripinfo_bus_m3.11 routing_bus_m3.11" vType="DEFAULT_VEHTYPE" speedFactor="1.00" vaporized=""/>
    <tripinfo id="bus_m3.12" depart="113.40" departLane="28053297#0_0" departPos="12.10" departSpeed="0.00" departDelay="5.60" arrival="171.40" arrivalLane="1241633682_1" arrivalPos="85.12" arrivalSpeed="22.17" duration="58.00" routeLength="1006.43" waitingTime="0.00" waitingCount="0" stopTime="0.00" timeLoss="12.53" rerouteNo="1" devices="tripinfo_bus_m3.12 routing_bus_m3.12" vType="DEFAULT_VEHTYPE" speedFactor="1.00" vaporized=""/>
    <tripinfo id="bus_m3.13" depart="133.20" departLane="28053297#0_0" departPos="12.10" departSpeed="0.00" departDelay="0.00" arrival="203.20" arrivalLane="1241633682_2" arrivalPos="85.12" arrivalSpeed="22.14" duration="70.00" routeLength="1006.43" waitingTime="0.00" waitingCount="0" stopTime="0.00" timeLoss="24.71" rerouteNo="1" devices="tripinfo_bus_m3.13 routing_bus_m3.13" vType="DEFAULT_VEHTYPE" speedFactor="1.00" vaporized=""/>
    <tripinfo id="f_1.7" depart="90.00" departLane="154204353.882_0" departPos="12.10" departSpeed="0.00" departDelay="12.00" arrival="204.40" arrivalLane="-E20_2" arrivalPos="191.27" arrivalSpeed="13.78" duration="114.40" routeLength="463.91" waitingTime="61.20" waitingCount="1" stopTime="0.00" timeLoss="82.93" rerouteNo="1" devices="tripinfo_f_1.7 routing_f_1.7" vType="DEFAULT_VEHTYPE" speedFactor="1.00" vaporized=""/>
    <tripinfo id="f_1.9" depart="101.00" departLane="154204353.882_0" departPos="12.10" departSpeed="0.00" departDelay="1.40" arrival="206.60" arrivalLane="-E20_2" arrivalPos="191.27" arrivalSpeed="13.80" duration="105.60" routeLength="463.91" waitingTime="51.60" waitingCount="1" stopTime="0.00" timeLoss="73.99" rerouteNo="1" devices="tripinfo_f_1.9 routing_f_1.9" vType="DEFAULT_VEHTYPE" speedFactor="1.00" vaporized=""/>
    <tripinfo id="bus_m3.14" depart="147.60" departLane="28053297#0_0" departPos="12.10" departSpeed="0.00" departDelay="0.00" arrival="206.80" arrivalLane="1241633682_2" arrivalPos="85.12" arrivalSpeed="22.17" duration="59.20" routeLength="1006.43" waitingTime="0.00" waitingCount="0" stopTime="0.00" timeLoss="13.77" rerouteNo="1" devices="tripinfo_bus_m3.14 routing_bus_m3.14" vType="DEFAULT_VEHTYPE" speedFactor="1.00" vaporized=""/>
    <tripinfo id="f_1.12" depart="151.40" departLane="154204353.882_0" departPos="12.10" departSpeed="0.00" departDelay="0.00" arrival="208.80" arrivalLane="-E20_2" arrivalPos="191.27" arrivalSpeed="13.84" duration="57.40" routeLength="463.91" waitingTime="2.80" waitingCount="1" stopTime="0.00" timeLoss="25.90" rerouteNo="1" devices="tripinfo_f_1.12 routing_f_1.12" vType="DEFAULT_VEHTYPE" speedFactor="1.00" vaporized=""/>
    <tripinfo id="bus_m3.15" depart="153.20" departLane="28053297#0_0" departPos="12.10" departSpeed="0.00" departDelay="3.60" arrival="212.40" arrivalLane="1241633682_2" arrivalPos="85.12" arrivalSpeed="22.19" duration="59.20" routeLength="1006.43" waitingTime="0.00" waitingCount="0" stopTime="0.00" timeLoss="13.91" rerouteNo="1" devices="tripinfo_bus_m3.15 routing_bus_m3.15" vType="DEFAULT_VEHTYPE" speedFactor="1.00" vaporized=""/>
    <tripinfo id="t_7" depart="8.80" departLane="264292224_0" departPos="12.10" departSpeed="0.00" departDelay="8.80" arrival="212.60" arrivalLane="594899548_0" arrivalPos="256.03" arrivalSpeed="22.19" duration="203.80" routeLength="336.86" waitingTime="166.60" waitingCount="3" stopTime="0.00" timeLoss="187.19" rerouteNo="0" devices="tripinfo_t_7 routing_t_7" vType="DEFAULT_VEHTYPE" speedFactor="1.00" vaporized=""/>
    <tripinfo id="f_1.8" depart="95.40" departLane="154204353.882_0" departPos="12.10" departSpeed="0.00" departDelay="9.80" arrival="216.20" arrivalLane="-E20_2" arrivalPos="191.27" arrivalSpeed="13.84" duration="120.80" routeLength="463.91" waitingTime="64.80" waitingCount="2" stopTime="0.00" timeLoss="89.17" rerouteNo="1" devices="tripinfo_f_1.8 routing_f_1.8" vType="DEFAULT_VEHTYPE" speedFactor="1.00" vaporized=""/>
    <tripinfo id="f_1.10" depart="110.60" departLane="154204353.882_0" departPos="12.10" departSpeed="0.00" departDelay="0.00" arrival="220.80" arrivalLane="-E20_3" arrivalPos="191.27" arrivalSpeed="13.83" duration="110.20" routeLength="464.49" waitingTime="50.60" waitingCount="2" stopTime="0.00" timeLoss="78.66" rerouteNo="1" devices="tripinfo_f_1.10 routing_f_1.10" vType="DEFAULT_VEHTYPE" speedFactor="1.00" vaporized=""/>
    <tripinfo id="bus_391.0" depart="1.00" departLane="-E2_0" departPos="12.10" departSpeed="0.00" departDelay="0.00" arrival="221.60" arrivalLane="1241633682_1" arrivalPos="85.12" arrivalSpeed="22.09" duration="220.60" routeLength="1486.45" waitingTime="41.00" waitingCount="3" stopTime="32.00" timeLoss="55.04" rerouteNo="1" devices="tripinfo_bus_391.0 routing_bus_391.0" vType="DEFAULT_VEHTYPE" speedFactor="1.00" vaporized=""/>
