<?xml version="1.0" encoding="UTF-8"?>

<!-- generated on 2026-05-27T17:11:29.055626+03:00 by Eclipse SUMO GUI v1_26_0+1000-c71e510aa5d
<sumoConfiguration xmlns:xsi="http://www.w3.org/2001/XMLSchema-instance" xsi:noNamespaceSchemaLocation="http://sumo.dlr.de/xsd/sumoConfiguration.xsd">

    <input>
        <net-file value="/mnt/extra/git_projects/Sumo_repo/2026-05-03-12-56-33/osm.net.xml.gz"/>
        <route-files value="/mnt/extra/git_projects/Sumo_repo/2026-05-03-12-56-33/osm.passenger.trips.xml"/>
        <additional-files value="/mnt/extra/git_projects/Sumo_repo/2026-05-03-12-56-33/osm.poly.xml.gz,/mnt/extra/git_projects/Sumo_repo/2026-05-03-12-56-33/osm_stops.add.xml,/mnt/extra/git_projects/Sumo_repo/2026-05-03-12-56-33/output.add.xml,/mnt/extra/git_projects/Sumo_repo/2026-05-03-12-56-33/osm.dat.add.xml"/>
    </input>

    <output>
        <tripinfo-output value="/mnt/extra/git_projects/Sumo_repo/2026-05-03-12-56-33/tripinfos.xml"/>
        <stop-output value="/mnt/extra/git_projects/Sumo_repo/2026-05-03-12-56-33/stopinfos.xml"/>
        <statistic-output value="/mnt/extra/git_projects/Sumo_repo/2026-05-03-12-56-33/stats.xml"/>
    </output>

    <time>
        <step-length value="0.2"/>
    </time>

    <processing>
        <ignore-route-errors value="true"/>
        <tls.actuated.jam-threshold value="30"/>
    </processing>

    <routing>
        <device.rerouting.adaptation-steps value="18"/>
        <device.rerouting.adaptation-interval value="10"/>
    </routing>

    <report>
        <verbose value="true"/>
        <duration-log.statistics value="true"/>
        <no-step-log value="true"/>
    </report>

    <gui_only>
        <gui-settings-file value="/mnt/extra/git_projects/Sumo_repo/2026-05-03-12-56-33/osm.view.xml"/>
        <delay value="100"/>
    </gui_only>

</sumoConfiguration>
-->

<tripinfos xmlns:xsi="http://www.w3.org/2001/XMLSchema-instance" xsi:noNamespaceSchemaLocation="http://sumo.dlr.de/xsd/tripinfo_file.xsd">
    <tripinfo id="t_2" depart="0.00" departLane="131700468#5_0" departPos="12.10" departSpeed="0.00" departDelay="0.00" arrival="11.00" arrivalLane="264292224_0" arrivalPos="46.96" arrivalSpeed="9.98" duration="11.00" routeLength="57.88" waitingTime="0.00" waitingCount="0" stopTime="0.00" timeLoss="6.80" rerouteNo="0" devices="tripinfo_t_2 routing_t_2" vType="DEFAULT_VEHTYPE" speedFactor="1.00" vaporized=""/>
    <tripinfo id="t_6" depart="0.00" departLane="264292224_0" departPos="12.10" departSpeed="0.00" departDelay="0.00" arrival="19.60" arrivalLane="264292208_0" arrivalPos="99.32" arrivalSpeed="16.65" duration="19.60" routeLength="179.55" waitingTime="0.00" waitingCount="0" stopTime="0.00" timeLoss="8.05" rerouteNo="0" devices="tripinfo_t_6 routing_t_6" vType="DEFAULT_VEHTYPE" speedFactor="1.00" vaporized=""/>
    <tripinfo id="bus_m3.0" depart="2.40" departLane="28053297#0_0" departPos="12.10" departSpeed="0.00" departDelay="0.00" arrival="59.80" arrivalLane="1241633682_1" arrivalPos="85.12" arrivalSpeed="22.15" duration="57.40" routeLength="1006.43" waitingTime="0.00" waitingCount="0" stopTime="0.00" timeLoss="12.09" rerouteNo="1" devices="tripinfo_bus_m3.0 routing_bus_m3.0" vType="DEFAULT_VEHTYPE" speedFactor="1.00" vaporized=""/>
    <tripinfo id="bus_m3.1" depart="8.00" departLane="28053297#0_0" departPos="12.10" departSpeed="0.00" departDelay="4.80" arrival="65.40" arrivalLane="1241633682_1" arrivalPos="85.12" arrivalSpeed="22.15" duration="57.40" routeLength="1006.43" waitingTime="0.00" waitingCount="0" stopTime="0.00" timeLoss="12.07" rerouteNo="1" devices="tripinfo_bus_m3.1 routing_bus_m3.1" vType="DEFAULT_VEHTYPE" speedFactor="1.00" vaporized=""/>
    <tripinfo id="bus_m3.2" depart="13.60" departLane="28053297#0_0" departPos="12.10" departSpeed="0.00" departDelay="7.60" arrival="71.00" arrivalLane="1241633682_1" arrivalPos="85.12" arrivalSpeed="22.22" duration="57.40" routeLength="1006.43" waitingTime="0.00" waitingCount="0" stopTime="0.00" timeLoss="12.10" rerouteNo="1" devices="tripinfo_bus_m3.2 routing_bus_m3.2" vType="DEFAULT_VEHTYPE" speedFactor="1.00" vaporized=""/>
    <tripinfo id="bus_m3.3" depart="19.20" departLane="28053297#0_0" departPos="12.10" departSpeed="0.00" departDelay="11.60" arrival="76.20" arrivalLane="1241633682_1" arrivalPos="85.12" arrivalSpeed="22.20" duration="57.00" routeLength="1006.43" waitingTime="0.00" waitingCount="0" stopTime="0.00" timeLoss="11.69" rerouteNo="1" devices="tripinfo_bus_m3.3 routing_bus_m3.3" vType="DEFAULT_VEHTYPE" speedFactor="1.00" vaporized=""/>
    <tripinfo id="bus_m3.4" depart="24.60" departLane="28053297#0_0" departPos="12.10" departSpeed="0.00" departDelay="15.40" arrival="82.40" arrivalLane="1241633682_1" arrivalPos="85.12" arrivalSpeed="22.21" duration="57.80" routeLength="1006.43" waitingTime="0.00" waitingCount="0" stopTime="0.00" timeLoss="12.46" rerouteNo="1" devices="tripinfo_bus_m3.4 routing_bus_m3.4" vType="DEFAULT_VEHTYPE" speedFactor="1.00" vaporized=""/>
    <tripinfo id="bus_m3.5" depart="30.20" departLane="28053297#0_0" departPos="12.10" departSpeed="0.00" departDelay="19.60" arrival="87.60" arrivalLane="1241633682_1" arrivalPos="85.12" arrivalSpeed="22.19" duration="57.40" routeLength="1006.43" waitingTime="0.00" waitingCount="0" stopTime="0.00" timeLoss="12.06" rerouteNo="1" devices="tripinfo_bus_m3.5 routing_bus_m3.5" vType="DEFAULT_VEHTYPE" speedFactor="1.00" vaporized=""/>
    <tripinfo id="bus_m3.6" depart="35.80" departLane="28053297#0_0" departPos="12.10" departSpeed="0.00" departDelay="21.40" arrival="93.80" arrivalLane="1241633682_1" arrivalPos="85.12" arrivalSpeed="22.15" duration="58.00" routeLength="1006.43" waitingTime="0.00" waitingCount="0" stopTime="0.00" timeLoss="12.58" rerouteNo="1" devices="tripinfo_bus_m3.6 routing_bus_m3.6" vType="DEFAULT_VEHTYPE" speedFactor="1.00" vaporized=""/>
    <tripinfo id="bus_m3.7" depart="41.40" departLane="28053297#0_0" departPos="12.10" departSpeed="0.00" departDelay="26.20" arrival="98.60" arrivalLane="1241633682_1" arrivalPos="85.12" arrivalSpeed="22.20" duration="57.20" routeLength="1006.43" waitingTime="0.00" waitingCount="0" stopTime="0.00" timeLoss="11.84" rerouteNo="1" devices="tripinfo_bus_m3.7 routing_bus_m3.7" vType="DEFAULT_VEHTYPE" speedFactor="1.00" vaporized=""/>
    <tripinfo id="bus_m3.8" depart="46.80" departLane="28053297#0_0" departPos="12.10" departSpeed="0.00" departDelay="30.80" arrival="104.60" arrivalLane="1241633682_1" arrivalPos="85.12" arrivalSpeed="22.18" duration="57.80" routeLength="1006.43" waitingTime="0.00" waitingCount="0" stopTime="0.00" timeLoss="12.40" rerouteNo="1" devices="tripinfo_bus_m3.8 routing_bus_m3.8" vType="DEFAULT_VEHTYPE" speedFactor="1.00" vaporized=""/>
    <tripinfo id="bus_m3.9" depart="52.40" departLane="28053297#0_0" departPos="12.10" departSpeed="0.00" departDelay="36.20" arrival="109.80" arrivalLane="1241633682_1" arrivalPos="85.12" arrivalSpeed="22.21" duration="57.40" routeLength="1006.43" waitingTime="0.00" waitingCount="0" stopTime="0.00" timeLoss="12.06" rerouteNo="1" devices="tripinfo_bus_m3.9 routing_bus_m3.9" vType="DEFAULT_VEHTYPE" speedFactor="1.00" vaporized=""/>
    <tripinfo id="f_1.1" depart="6.00" departLane="154204353.882_0" departPos="12.10" departSpeed="0.00" departDelay="3.80" arrival="114.40" arrivalLane="-E20_1" arrivalPos="191.27" arrivalSpeed="13.78" duration="108.40" routeLength="463.91" waitingTime="58.20" waitingCount="1" stopTime="0.00" timeLoss="76.92" rerouteNo="1" devices="tripinfo_f_1.1 routing_f_1.1" vType="DEFAULT_VEHTYPE" speedFactor="1.00" vaporized=""/>
    <tripinfo id="bus_m3.10" depart="57.80" departLane="28053297#0_0" departPos="12.10" departSpeed="0.00" departDelay="34.80" arrival="115.60" arrivalLane="1241633682_1" arrivalPos="85.12" arrivalSpeed="22.20" duration="57.80" routeLength="1006.43" waitingTime="0.00" waitingCount="0" stopTime="0.00" timeLoss="12.46" rerouteNo="1" devices="tripinfo_bus_m3.10 routing_bus_m3.10" vType="DEFAULT_VEHTYPE" speedFactor="1.00" vaporized=""/>
    <tripinfo id="f_1.3" depart="17.20" departLane="154204353.882_0" departPos="12.10" departSpeed="0.00" departDelay="12.20" arrival="116.40" arrivalLane="-E20_2" arrivalPos="191.27" arrivalSpeed="13.86" duration="99.20" routeLength="463.91" waitingTime="45.60" waitingCount="1" stopTime="0.00" timeLoss="67.55" rerouteNo="1" devices="tripinfo_f_1.3 routing_f_1.3" vType="DEFAULT_VEHTYPE" speedFactor="1.00" vaporized=""/>
    <tripinfo id="f_1.5" depart="28.40" departLane="154204353.882_0" departPos="12.10" departSpeed="0.00" departDelay="19.60" arrival="118.80" arrivalLane="-E20_2" arrivalPos="191.27" arrivalSpeed="13.80" duration="90.40" routeLength="463.91" waitingTime="35.80" waitingCount="1" stopTime="0.00" timeLoss="58.93" rerouteNo="1" devices="tripinfo_f_1.5 routing_f_1.5" vType="DEFAULT_VEHTYPE" speedFactor="1.00" vaporized=""/>
    <tripinfo id="bus_m3.11" depart="63.40" departLane="28053297#0_0" departPos="12.10" departSpeed="0.00" departDelay="38.80" arrival="121.00" arrivalLane="1241633682_1" arrivalPos="85.12" arrivalSpeed="22.15" duration="57.60" routeLength="1006.43" waitingTime="0.00" waitingCount="0" stopTime="0.00" timeLoss="12.27" rerouteNo="1" devices="tripinfo_bus_m3.11 routing_bus_m3.11" vType="DEFAULT_VEHTYPE" speedFactor="1.00" vaporized=""/>
    <tripinfo id="f_1.7" depart="39.40" departLane="154204353.882_0" departPos="12.10" departSpeed="0.00" departDelay="27.40" arrival="121.60" arrivalLane="-E20_2" arrivalPos="191.27" arrivalSpeed="13.85" duration="82.20" routeLength="463.91" waitingTime="26.60" waitingCount="1" stopTime="0.00" timeLoss="50.71" rerouteNo="1" devices="tripinfo_f_1.7 routing_f_1.7" vType="DEFAULT_VEHTYPE" speedFactor="1.00" vaporized=""/>
    <tripinfo id="f_1.9" depart="50.00" departLane="154204353.882_0" departPos="12.10" departSpeed="0.00" departDelay="35.80" arrival="124.60" arrivalLane="-E20_2" arrivalPos="191.27" arrivalSpeed="13.87" duration="74.60" routeLength="463.91" waitingTime="21.00" waitingCount="1" stopTime="0.00" timeLoss="43.07" rerouteNo="1" devices="tripinfo_f_1.9 routing_f_1.9" vType="DEFAULT_VEHTYPE" speedFactor="1.00" vaporized=""/>
    <tripinfo id="bus_m3.12" depart="69.00" departLane="28053297#0_0" departPos="12.10" departSpeed="0.00" departDelay="43.20" arrival="126.60" arrivalLane="1241633682_1" arrivalPos="85.12" arrivalSpeed="22.11" duration="57.60" routeLength="1006.43" waitingTime="0.00" waitingCount="0" stopTime="0.00" timeLoss="12.21" rerouteNo="1" devices="tripinfo_bus_m3.12 routing_bus_m3.12" vType="DEFAULT_VEHTYPE" speedFactor="1.00" vaporized=""/>
    <tripinfo id="f_1.0" depart="0.40" departLane="154204353.882_0" departPos="12.10" departSpeed="0.00" departDelay="0.00" arrival="130.60" arrivalLane="-E20_3" arrivalPos="191.27" arrivalSpeed="13.82" duration="130.20" routeLength="464.49" waitingTime="79.00" waitingCount="2" stopTime="0.00" timeLoss="98.61" rerouteNo="1" devices="tripinfo_f_1.0 routing_f_1.0" vType="DEFAULT_VEHTYPE" speedFactor="1.00" vaporized=""/>
    <tripinfo id="bus_m3.13" depart="74.60" departLane="28053297#0_0" departPos="12.10" departSpeed="0.00" departDelay="47.80" arrival="132.00" arrivalLane="1241633682_1" arrivalPos="85.12" arrivalSpeed="22.19" duration="57.40" routeLength="1006.43" waitingTime="0.00" waitingCount="0" stopTime="0.00" timeLoss="12.07" rerouteNo="1" devices="tripinfo_bus_m3.13 routing_bus_m3.13" vType="DEFAULT_VEHTYPE" speedFactor="1.00" vaporized=""/>
    <tripinfo id="bus_m3.14" depart="80.20" departLane="28053297#0_0" departPos="12.10" departSpeed="0.00" departDelay="51.20" arrival="138.40" arrivalLane="1241633682_1" arrivalPos="85.12" arrivalSpeed="22.15" duration="58.20" routeLength="1006.43" waitingTime="0.00" waitingCount="0" stopTime="0.00" timeLoss="12.83" rerouteNo="1" devices="tripinfo_bus_m3.14 routing_bus_m3.14" vType="DEFAULT_VEHTYPE" speedFactor="1.00" vaporized=""/>
    <tripinfo id="f_1.11" depart="59.80" departLane="154204353.882_0" departPos="12.10" departSpeed="0.00" departDelay="42.00" arrival="138.80" arrivalLane="-E20_2" arrivalPos="191.27" arrivalSpeed="13.84" duration="79.00" routeLength="463.91" waitingTime="13.60" waitingCount="2" stopTime="0.00" timeLoss="47.44" rerouteNo="1" devices="tripinfo_f_1.11 routing_f_1.11" vType="DEFAULT_VEHTYPE" speedFactor="1.00" vaporized=""/>
    <tripinfo id="f_0.0" depart="0.00" departLane="1272473366_0" departPos="12.10" departSpeed="0.00" departDelay="0.00" arrival="140.40" arrivalLane="-E20_1" arrivalPos="191.27" arrivalSpeed="13.88" duration="140.40" routeLength="1006.21" waitingTime="53.40" waitingCount="1" stopTime="0.00" timeLoss="77.26" rerouteNo="1" devices="tripinfo_f_0.0 routing_f_0.0" vType="DEFAULT_VEHTYPE" speedFactor="1.00" vaporized=""/>
    <tripinfo id="f_0.2" depart="11.40" departLane="1272473366_0" departPos="12.10" departSpeed="0.00" departDelay="7.00" arrival="142.60" arrivalLane="-E20_1" arrivalPos="191.27" arrivalSpeed="13.88" duration="131.20" routeLength="1006.21" waitingTime="40.20" waitingCount="1" stopTime="0.00" timeLoss="67.94" rerouteNo="1" devices="tripinfo_f_0.2 routing_f_0.2" vType="DEFAULT_VEHTYPE" speedFactor="1.00" vaporized=""/>
    <tripinfo id="f_0.1" depart="5.80" departLane="1272473366_0" departPos="12.10" departSpeed="0.00" departDelay="1.80" arrival="143.00" arrivalLane="-E20_2" arrivalPos="191.27" arrivalSpeed="13.84" duration="137.20" routeLength="1006.21" waitingTime="48.60" waitingCount="2" stopTime="0.00" timeLoss="74.05" rerouteNo="1" devices="tripinfo_f_0.1 routing_f_0.1" vType="DEFAULT_VEHTYPE" speedFactor="1.00" vaporized=""/>
    <tripinfo id="bus_m3.15" depart="85.80" departLane="28053297#0_0" departPos="12.10" departSpeed="0.00" departDelay="56.20" arrival="143.40" arrivalLane="1241633682_1" arrivalPos="85.12" arrivalSpeed="22.10" duration="57.60" routeLength="1006.43" waitingTime="0.00" waitingCount="0" stopTime="0.00" timeLoss="12.12" rerouteNo="1" devices="tripinfo_bus_m3.15 routing_bus_m3.15" vType="DEFAULT_VEHTYPE" speedFactor="1.00" vaporized=""/>
    <tripinfo id="f_0.4" depart="22.40" departLane="1272473366_0" departPos="12.10" departSpeed="0.00" departDelay="9.40" arrival="144.60" arrivalLane="-E20_1" arrivalPos="191.27" arrivalSpeed="13.85" duration="122.20" routeLength="1006.21" waitingTime="30.60" waitingCount="1" stopTime="0.00" timeLoss="59.01" rerouteNo="1" devices="tripinfo_f_0.4 routing_f_0.4" vType="DEFAULT_VEHTYPE" speedFactor="1.00" vaporized=""/>
    <tripinfo id="f_0.3" depart="17.20" departLane="1272473366_0" departPos="12.10" departSpeed="0.00" departDelay="10.80" arrival="145.00" arrivalLane="-E20_2" arrivalPos="191.27" arrivalSpeed="13.79" duration="127.80" routeLength="1006.21" waitingTime="34.40" waitingCount="1" stopTime="0.00" timeLoss="64.70" rerouteNo="1" devices="tripinfo_f_0.3 routing_f_0.3" vType="DEFAULT_VEHTYPE" speedFactor="1.00" vaporized=""/>
    <tripinfo id="f_1.2" depart="11.60" departLane="154204353.882_0" departPos="12.10" departSpeed="0.00" departDelay="8.40" arrival="146.00" arrivalLane="-E20_3" arrivalPos="191.27" arrivalSpeed="13.85" duration="134.40" routeLength="464.49" waitingTime="70.80" waitingCount="3" stopTime="0.00" timeLoss="102.81" rerouteNo="1" devices="tripinfo_f_1.2 routing_f_1.2" vType="DEFAULT_VEHTYPE" speedFactor="1.00" vaporized=""/>
    <tripinfo id="f_0.5" depart="28.00" departLane="1272473366_0" departPos="12.10" departSpeed="0.00" departDelay="14.80" arrival="146.60" arrivalLane="-E20_1" arrivalPos="191.27" arrivalSpeed="13.88" duration="118.60" routeLength="1006.21" waitingTime="26.40" waitingCount="1" stopTime="0.00" timeLoss="55.46" rerouteNo="1" devices="tripinfo_f_0.5 routing_f_0.5" vType="DEFAULT_VEHTYPE" speedFactor="1.00" vaporized=""/>
    <tripinfo id="bus_391_1.0" depart="0.20" departLane="430045516_0" departPos="12.10" departSpeed="0.00" departDelay="0.00" arrival="147.40" arrivalLane="-E20_2" arrivalPos="191.27" arrivalSpeed="13.88" duration="147.20" routeLength="1496.70" waitingTime="28.00" waitingCount="1" stopTime="0.00" timeLoss="56.89" rerouteNo="1" devices="tripinfo_bus_391_1.0 routing_bus_391_1.0" vType="DEFAULT_VEHTYPE" speedFactor="1.00" vaporized=""/>
    <tripinfo id="bus_m3.16" depart="91.20" departLane="28053297#0_0" departPos="12.10" departSpeed="0.00" departDelay="60.60" arrival="148.40" arrivalLane="1241633682_1" arrivalPos="85.12" arrivalSpeed="22.14" duration="57.20" routeLength="1006.43" waitingTime="0.00" waitingCount="0" stopTime="0.00" timeLoss="11.82" rerouteNo="1" devices="tripinfo_bus_m3.16 routing_bus_m3.16" vType="DEFAULT_VEHTYPE" speedFactor="1.00" vaporized=""/>
    <tripinfo id="f_0.6" depart="33.40" departLane="1272473366_0" departPos="12.10" departSpeed="0.00" departDelay="16.00" arrival="148.60" arrivalLane="-E20_1" arrivalPos="191.27" arrivalSpeed="13.82" duration="115.20" routeLength="1006.21" waitingTime="22.60" waitingCount="1" stopTime="0.00" timeLoss="52.12" rerouteNo="1" devices="tripinfo_f_0.6 routing_f_0.6" vType="DEFAULT_VEHTYPE" speedFactor="1.00" vaporized=""/>
    <tripinfo id="bus_m3.17" depart="96.60" departLane="28053297#0_0" departPos="12.10" departSpeed="0.00" departDelay="65.00" arrival="154.00" arrivalLane="1241633682_1" arrivalPos="85.12" arrivalSpeed="22.13" duration="57.40" routeLength="1006.43" waitingTime="0.00" waitingCount="0" stopTime="0.00" timeLoss="11.99" rerouteNo="1" devices="tripinfo_bus_m3.17 routing_bus_m3.17" vType="DEFAULT_VEHTYPE" speedFactor="1.00" vaporized=""/>
    <tripinfo id="bus_m3.18" depart="102.00" departLane="28053297#0_0" departPos="12.10" departSpeed="0.00" departDelay="67.40" arrival="159.40" arrivalLane="1241633682_1" arrivalPos="85.12" arrivalSpeed="22.11" duration="57.40" routeLength="1006.43" waitingTime="0.00" waitingCount="0" stopTime="0.00" timeLoss="11.91" rerouteNo="1" devices="tripinfo_bus_m3.18 routing_bus_m3.18" vType="DEFAULT_VEHTYPE" speedFactor="1.00" vaporized=""/>
    <tripinfo id="bus_m3.19" depart="107.60" departLane="28053297#0_0" departPos="12.10" departSpeed="0.00" departDelay="71.80" arrival="165.20" arrivalLane="1241633682_1" arrivalPos="85.12" arrivalSpeed="22.20" duration="57.60" routeLength="1006.43" waitingTime="0.00" waitingCount="0" stopTime="0.00" timeLoss="12.20" rerouteNo="1" devices="tripinfo_bus_m3.19 routing_bus_m3.19" vType="DEFAULT_VEHTYPE" speedFactor="1.00" vaporized=""/>
    <tripinfo id="bus_m3.20" depart="113.20" departLane="28053297#0_0" departPos="12.10" departSpeed="0.00" departDelay="74.20" arrival="170.40" arrivalLane="1241633682_1" arrivalPos="85.12" arrivalSpeed="22.20" duration="57.20" routeLength="1006.43" waitingTime="0.00" waitingCount="0" stopTime="0.00" timeLoss="11.88" rerouteNo="1" devices="tripinfo_bus_m3.20 routing_bus_m3.20" vType="DEFAULT_VEHTYPE" speedFactor="1.00" vaporized=""/>
    <tripinfo id="bus_m3.21" depart="118.60" departLane="28053297#0_0" departPos="12.10" departSpeed="0.00" departDelay="78.20" arrival="176.20" arrivalLane="1241633682_1" arrivalPos="85.12" arrivalSpeed="22.11" duration="57.60" routeLength="1006.43" waitingTime="0.00" waitingCount="0" stopTime="0.00" timeLoss="12.16" rerouteNo="1" devices="tripinfo_bus_m3.21 routing_bus_m3.21" vType="DEFAULT_VEHTYPE" speedFactor="1.00" vaporized=""/>
    <tripinfo id="bus_m3.22" depart="124.40" departLane="28053297#0_0" departPos="12.10" departSpeed="0.00" departDelay="82.80" arrival="182.00" arrivalLane="1241633682_1" arrivalPos="85.12" arrivalSpeed="22.17" duration="57.60" routeLength="1006.43" waitingTime="0.00" waitingCount="0" stopTime="0.00" timeLoss="12.11" rerouteNo="1" devices="tripinfo_bus_m3.22 routing_bus_m3.22" vType="DEFAULT_VEHTYPE" speedFactor="1.00" vaporized=""/>
    <tripinfo id="bus_m3.23" depart="130.00" departLane="28053297#0_0" departPos="12.10" departSpeed="0.00" departDelay="86.80" arrival="187.80" arrivalLane="1241633682_1" arrivalPos="85.12" arrivalSpeed="22.18" duration="57.80" routeLength="1006.43" waitingTime="0.00" waitingCount="0" stopTime="0.00" timeLoss="12.38" rerouteNo="1" devices="tripinfo_bus_m3.23 routing_bus_m3.23" vType="DEFAULT_VEHTYPE" speedFactor="1.00" vaporized=""/>
    <tripinfo id="bus_m3.24" depart="135.40" departLane="28053297#0_0" departPos="12.10" departSpeed="0.00" departDelay="88.20" arrival="193.00" arrivalLane="1241633682_1" arrivalPos="85.12" arrivalSpeed="22.17" duration="57.60" routeLength="1006.43" waitingTime="0.00" waitingCount="0" stopTime="0.00" timeLoss="12.25" rerouteNo="1" devices="tripinfo_bus_m3.24 routing_bus_m3.24" vType="DEFAULT_VEHTYPE" speedFactor="1.00" vaporized=""/>
    <tripinfo id="bus_m3.25" depart="141.00" departLane="28053297#0_0" departPos="12.10" departSpeed="0.00" departDelay="92.40" arrival="198.60" arrivalLane="1241633682_1" arrivalPos="85.12" arrivalSpeed="22.18" duration="57.60" routeLength="1006.43" waitingTime="0.00" waitingCount="0" stopTime="0.00" timeLoss="12.18" rerouteNo="1" devices="tripinfo_bus_m3.25 routing_bus_m3.25" vType="DEFAULT_VEHTYPE" speedFactor="1.00" vaporized=""/>
    <tripinfo id="bus_m3.26" depart="146.60" departLane="28053297#0_0" departPos="12.10" departSpeed="0.00" departDelay="97.80" arrival="204.20" arrivalLane="1241633682_1" arrivalPos="85.12" arrivalSpeed="22.19" duration="57.60" routeLength="1006.43" waitingTime="0.00" waitingCount="0" stopTime="0.00" timeLoss="12.28" rerouteNo="1" devices="tripinfo_bus_m3.26 routing_bus_m3.26" vType="DEFAULT_VEHTYPE" speedFactor="1.00" vaporized=""/>
    <tripinfo id="f_1.13" depart="68.60" departLane="154204353.882_0" departPos="12.10" departSpeed="0.00" departDelay="46.00" arrival="204.40" arrivalLane="-E20_2" arrivalPos="191.27" arrivalSpeed="13.80" duration="135.80" routeLength="463.91" waitingTime="64.20" waitingCount="3" stopTime="0.00" timeLoss="104.17" rerouteNo="1" devices="tripinfo_f_1.13 routing_f_1.13" vType="DEFAULT_VEHTYPE" speedFactor="1.00" vaporized=""/>
    <tripinfo id="f_1.15" depart="76.20" departLane="154204353.882_0" departPos="12.10" departSpeed="0.00" departDelay="47.80" arrival="206.40" arrivalLane="-E20_2" arrivalPos="191.27" arrivalSpeed="13.80" duration="130.20" routeLength="463.91" waitingTime="59.00" waitingCount="1" stopTime="0.00" timeLoss="98.64" rerouteNo="1" devices="tripinfo_f_1.15 routing_f_1.15" vType="DEFAULT_VEHTYPE" speedFactor="1.00" vaporized=""/>
    <tripinfo id="f_1.17" depart="82.80" departLane="154204353.882_0" departPos="12.10" departSpeed="0.00" departDelay="52.20" arrival="208.60" arrivalLane="-E20_2" arrivalPos="191.27" arrivalSpeed="13.82" duration="125.80" routeLength="463.91" waitingTime="58.00" waitingCount="1" stopTime="0.00" timeLoss="94.33" rerouteNo="1" devices="tripinfo_f_1.17 routing_f_1.17" vType="DEFAULT_VEHTYPE" speedFactor="1.00" vaporized=""/>
    <tripinfo id="bus_m3.27" depart="152.20" departLane="28053297#0_0" departPos="12.10" departSpeed="0.00" departDelay="101.40" arrival="209.60" arrivalLane="1241633682_1" arrivalPos="85.12" arrivalSpeed="22.13" duration="57.40" routeLength="1006.43" waitingTime="0.00" waitingCount="0" stopTime="0.00" timeLoss="12.09" rerouteNo="1" devices="tripinfo_bus_m3.27 routing_bus_m3.27" vType="DEFAULT_VEHTYPE" speedFactor="1.00" vaporized=""/>
    <tripinfo id="f_1.18" depart="86.00" departLane="154204353.882_0" departPos="12.10" departSpeed="0.00" departDelay="55.00" arrival="211.80" arrivalLane="-E20_2" arrivalPos="191.27" arrivalSpeed="13.78" duration="125.80" routeLength="463.91" waitingTime="57.40" waitingCount="2" stopTime="0.00" timeLoss="94.16" rerouteNo="1" devices="tripinfo_f_1.18 routing_f_1.18" vType="DEFAULT_VEHTYPE" speedFactor="1.00" vaporized=""/>
    <tripinfo id="f_1.19" depart="90.20" departLane="154204353.882_0" departPos="12.10" departSpeed="0.00" departDelay="58.80" arrival="214.60" arrivalLane="-E20_2" arrivalPos="191.27" arrivalSpeed="13.83" duration="124.40" routeLength="463.91" waitingTime="64.00" waitingCount="5" stopTime="0.00" timeLoss="92.82" rerouteNo="1" devices="tripinfo_f_1.19 routing_f_1.19" vType="DEFAULT_VEHTYPE" speedFactor="1.00" vaporized=""/>
    <tripinfo id="bus_m3.28" depart="157.80" departLane="28053297#0_0" departPos="12.10" departSpeed="0.00" departDelay="106.80" arrival="215.60" arrivalLane="1241633682_1" arrivalPos="85.12" arrivalSpeed="22.20" duration="57.80" routeLength="1006.43" waitingTime="0.00" waitingCount="0" stopTime="0.00" timeLoss="12.39" rerouteNo="1" devices="tripinfo_bus_m3.28 routing_bus_m3.28" vType="DEFAULT_VEHTYPE" speedFactor="1.00" vaporized=""/>
    <tripinfo id="f_1.4" depart="22.80" departLane="154204353.882_0" departPos="12.10" departSpeed="0.00" departDelay="17.40" arrival="220.40" arrivalLane="-E20_3" arrivalPos="191.27" arrivalSpeed="13.82" duration="197.60" routeLength="464.49" waitingTime="127.20" waitingCount="5" stopTime="0.00" timeLoss="166.00" rerouteNo="1" devices="tripinfo_f_1.4 routing_f_1.4" vType="DEFAULT_VEHTYPE" speedFactor="1.00" vaporized=""/>
    <tripinfo id="bus_m3.29" depart="163.40" departLane="28053297#0_0" departPos="12.10" departSpeed="0.00" departDelay="111.80" arrival="221.20" arrivalLane="1241633682_1" arrivalPos="85.12" arrivalSpeed="22.15" duration="57.80" routeLength="1006.43" waitingTime="0.00" waitingCount="0" stopTime="0.00" timeLoss="12.43" rerouteNo="1" devices="tripinfo_bus_m3.29 routing_bus_m3.29" vType="DEFAULT_VEHTYPE" speedFactor="1.00" vaporized=""/>
    <tripinfo id="bus_m3.30" depart="169.00" departLane="28053297#0_0" departPos="12.10" departSpeed="0.00" departDelay="115.80" arrival="226.60" arrivalLane="1241633682_1" arrivalPos="85.12" arrivalSpeed="22.13" duration="57.60" routeLength="1006.43" waitingTime="0.00" waitingCount="0" stopTime="0.00" timeLoss="12.23" rerouteNo="1" devices="tripinfo_bus_m3.30 routing_bus_m3.30" vType="DEFAULT_VEHTYPE" speedFactor="1.00" vaporized=""/>
    <tripinfo id="f_1.16" depart="79.00" departLane="154204353.882_0" departPos="12.10" departSpeed="0.00" departDelay="50.00" arrival="228.80" arrivalLane="-E20_2" arrivalPos="191.27" arrivalSpeed="13.78" duration="149.80" routeLength="463.91" waitingTime="73.00" waitingCount="3" stopTime="0.00" timeLoss="118.26" rerouteNo="1" devices="tripinfo_f_1.16 routing_f_1.16" vType="DEFAULT_VEHTYPE" speedFactor="1.00" vaporized=""/>
    <tripinfo id="f_0.7" depart="38.80" departLane="1272473366_0" departPos="12.10" departSpeed="0.00" departDelay="17.20" arrival="230.60" arrivalLane="-E20_1" arrivalPos="191.27" arrivalSpeed="13.78" duration="191.80" routeLength="1006.21" waitingTime="95.40" waitingCount="3" stopTime="0.00" timeLoss="128.67" rerouteNo="1" devices="tripinfo_f_0.7 routing_f_0.7" vType="DEFAULT_VEHTYPE" speedFactor="1.00" vaporized=""/>
    <tripinfo id="bus_m3.31" depart="174.60" departLane="28053297#0_0" departPos="12.10" departSpeed="0.00" departDelay="120.20" arrival="232.00" arrivalLane="1241633682_1" arrivalPos="85.12" arrivalSpeed="22.19" duration="57.40" routeLength="1006.43" waitingTime="0.00" waitingCount="0" stopTime="0.00" timeLoss="11.97" rerouteNo="1" devices="tripinfo_bus_m3.31 routing_bus_m3.31" vType="DEFAULT_VEHTYPE" speedFactor="1.00" vaporized=""/>
    <tripinfo id="f_0.8" depart="44.20" departLane="1272473366_0" departPos="12.10" departSpeed="0.00" departDelay="22.00" arrival="232.60" arrivalLane="-E20_1" arrivalPos="191.27" arrivalSpeed="13.89" duration="188.40" routeLength="1006.21" waitingTime="84.40" waitingCount="2" stopTime="0.00" timeLoss="125.30" rerouteNo="1" devices="tripinfo_f_0.8 routing_f_0.8" vType="DEFAULT_VEHTYPE" speedFactor="1.00" vaporized=""/>
    <tripinfo id="bus_800_1.0" depart="5.80" departLane="430045516_0" departPos="12.10" departSpeed="0.00" departDelay="4.80" arrival="233.00" arrivalLane="-E20_2" arrivalPos="191.27" arrivalSpeed="13.85" duration="227.20" routeLength="1496.70" waitingTime="99.00" waitingCount="3" stopTime="0.00" timeLoss="137.01" rerouteNo="1" devices="tripinfo_bus_800_1.0 routing_bus_800_1.0" vType="DEFAULT_VEHTYPE" speedFactor="1.00" vaporized=""/>
    <tripinfo id="f_0.9" depart="49.60" departLane="1272473366_0" departPos="12.10" departSpeed="0.00" departDelay="27.00" arrival="234.80" arrivalLane="-E20_1" arrivalPos="191.27" arrivalSpeed="13.83" duration="185.20" routeLength="1006.21" waitingTime="78.20" waitingCount="2" stopTime="0.00" timeLoss="121.95" rerouteNo="1" devices="tripinfo_f_0.9 routing_f_0.9" vType="DEFAULT_VEHTYPE" speedFactor="1.00" vaporized=""/>
    <tripinfo id="bus_391_1.1" depart="11.40" departLane="430045516_0" departPos="12.10" departSpeed="0.00" departDelay="10.20" arrival="235.20" arrivalLane="-E20_2" arrivalPos="191.27" arrivalSpeed="13.87" duration="223.80" routeLength="1496.70" waitingTime="90.00" waitingCount="2" stopTime="0.00" timeLoss="133.55" rerouteNo="1" devices="tripinfo_bus_391_1.1 routing_bus_391_1.1" vType="DEFAULT_VEHTYPE" speedFactor="1.00" vaporized=""/>
    <tripinfo id="f_1.6" depart="34.00" departLane="154204353.882_0" departPos="12.10" departSpeed="0.00" departDelay="22.20" arrival="235.80" arrivalLane="-E20_3" arrivalPos="191.27" arrivalSpeed="13.85" duration="201.80" routeLength="464.49" waitingTime="119.00" waitingCount="6" stopTime="0.00" timeLoss="170.13" rerouteNo="1" devices="tripinfo_f_1.6 routing_f_1.6" vType="DEFAULT_VEHTYPE" speedFactor="1.00" vaporized=""/>
    <tripinfo id="f_0.10" depart="55.20" departLane="1272473366_0" departPos="12.10" departSpeed="0.00" departDelay="30.00" arrival="236.80" arrivalLane="-E20_1" arrivalPos="191.27" arrivalSpeed="13.88" duration="181.60" routeLength="1006.21" waitingTime="73.40" waitingCount="2" stopTime="0.00" timeLoss="118.43" rerouteNo="1" devices="tripinfo_f_0.10 routing_f_0.10" vType="DEFAULT_VEHTYPE" speedFactor="1.00" vaporized=""/>