<?xml version="1.0" encoding="UTF-8"?>

<!-- generated on 2026-05-27T17:37:49.716718+03:00 by Eclipse SUMO GUI v1_26_0+1000-c71e510aa5d
<sumoConfiguration xmlns:xsi="http://www.w3.org/2001/XMLSchema-instance" xsi:noNamespaceSchemaLocation="http://sumo.dlr.de/xsd/sumoConfiguration.xsd">

    <input>
        <net-file value="/mnt/extra/git_projects/Sumo_repo/2026-05-03-12-56-33/osm.net.xml.gz"/>
        <route-files value="/mnt/extra/git_projects/Sumo_repo/2026-05-03-12-56-33/osm.passenger.trips.xml"/>
        <additional-files value="/mnt/extra/git_projects/Sumo_repo/2026-05-03-12-56-33/osm.poly.xml.gz,/mnt/extra/git_projects/Sumo_repo/2026-05-03-12-56-33/osm_stops.add.xml,/mnt/extra/git_projects/Sumo_repo/2026-05-03-12-56-33/output.add.xml,/mnt/extra/git_projects/Sumo_repo/2026-05-03-12-56-33/osm.dat.add.xml"/>
    </input>

    <output>
        <tripinfo-output value="/mnt/extra/git_projects/Sumo_repo/2026-05-03-12-56-33/tripinfos.xml"/>
        <stop-output value="/mnt/extra/git_projects/Sumo_repo/2026-05-03-12-56-33/stopinfos.xml"/>
        <statistic-output value="/mnt/extra/git_projects/Sumo_repo/2026-05-03-12-56-33/stats.xml"/>
    </output>

    <time>
        <step-length value="0.2"/>
    </time>

    <processing>
        <ignore-route-errors value="true"/>
        <tls.actuated.jam-threshold value="30"/>
    </processing>

    <routing>
        <device.rerouting.adaptation-steps value="18"/>
        <device.rerouting.adaptation-interval value="10"/>
    </routing>

    <report>
        <verbose value="true"/>
        <duration-log.statistics value="true"/>
        <no-step-log value="true"/>
    </report>

    <gui_only>
        <gui-settings-file value="/mnt/extra/git_projects/Sumo_repo/2026-05-03-12-56-33/osm.view.xml"/>
        <delay value="100"/>
    </gui_only>

</sumoConfiguration>
-->

<tripinfos xmlns:xsi="http://www.w3.org/2001/XMLSchema-instance" xsi:noNamespaceSchemaLocation="http://sumo.dlr.de/xsd/tripinfo_file.xsd">
    <tripinfo id="bus_m3.0" depart="2.60" departLane="28053297#0_0" departPos="12.10" departSpeed="0.00" departDelay="0.00" arrival="125.40" arrivalLane="1241633682_1" arrivalPos="85.12" arrivalSpeed="22.16" duration="122.80" routeLength="1006.43" waitingTime="0.20" waitingCount="1" stopTime="24.00" timeLoss="8.75" rerouteNo="1" devices="tripinfo_bus_m3.0 routing_bus_m3.0" vType="DEFAULT_VEHTYPE" speedFactor="1.00" vaporized=""/>
    <tripinfo id="bus_m3.1" depart="33.40" departLane="28053297#0_0" departPos="12.10" departSpeed="0.00" departDelay="0.00" arrival="157.00" arrivalLane="1241633682_1" arrivalPos="85.12" arrivalSpeed="22.14" duration="123.60" routeLength="1006.43" waitingTime="0.20" waitingCount="1" stopTime="24.00" timeLoss="9.09" rerouteNo="1" devices="tripinfo_bus_m3.1 routing_bus_m3.1" vType="DEFAULT_VEHTYPE" speedFactor="1.00" vaporized=""/>
    <tripinfo id="bus_391_1.0" depart="49.80" departLane="430045516_0" departPos="12.10" departSpeed="0.00" departDelay="0.00" arrival="230.60" arrivalLane="-E20_1" arrivalPos="191.27" arrivalSpeed="13.87" duration="180.80" routeLength="1496.70" waitingTime="69.20" waitingCount="1" stopTime="0.00" timeLoss="90.53" rerouteNo="1" devices="tripinfo_bus_391_1.0 routing_bus_391_1.0" vType="DEFAULT_VEHTYPE" speedFactor="1.00" vaporized=""/>
    <tripinfo id="bus_800_1.0" depart="135.20" departLane="430045516_0" departPos="12.10" departSpeed="0.00" departDelay="0.00" arrival="236.80" arrivalLane="-E20_2" arrivalPos="191.27" arrivalSpeed="13.83" duration="101.60" routeLength="1496.70" waitingTime="0.00" waitingCount="0" stopTime="0.00" timeLoss="11.38" rerouteNo="1" devices="tripinfo_bus_800_1.0 routing_bus_800_1.0" vType="DEFAULT_VEHTYPE" speedFactor="1.00" vaporized=""/>
    <tripinfo id="bus_322.0" depart="19.40" departLane="-E2_0" departPos="5.46" departSpeed="0.00" departDelay="0.00" arrival="253.80" arrivalLane="-1272473366_0" arrivalPos="75.80" arrivalSpeed="12.68" duration="234.40" routeLength="1386.50" waitingTime="63.80" waitingCount="4" stopTime="24.00" timeLoss="96.76" rerouteNo="1" devices="tripinfo_bus_322.0 routing_bus_322.0" vType="DEFAULT_VEHTYPE" speedFactor="1.00" vaporized=""/>
    <tripinfo id="bus_339.0" depart="88.00" departLane="154204353.882_0" departPos="12.10" departSpeed="0.00" departDelay="0.00" arrival="269.60" arrivalLane="-E20_0" arrivalPos="191.27" arrivalSpeed="9.37" duration="181.60" routeLength="470.18" waitingTime="0.00" waitingCount="0" stopTime="120.00" timeLoss="5.38" rerouteNo="1" devices="tripinfo_bus_339.0 routing_bus_339.0" vType="DEFAULT_VEHTYPE" speedFactor="1.00" vaporized=""/>
    <tripinfo id="bus_m3.2" depart="190.00" departLane="28053297#0_0" departPos="12.10" departSpeed="0.00" departDelay="0.00" arrival="313.20" arrivalLane="1241633682_1" arrivalPos="85.12" arrivalSpeed="22.01" duration="123.20" routeLength="1006.43" waitingTime="0.20" waitingCount="1" stopTime="24.00" timeLoss="9.16" rerouteNo="1" devices="tripinfo_bus_m3.2 routing_bus_m3.2" vType="DEFAULT_VEHTYPE" speedFactor="1.00" vaporized=""/>
    <tripinfo id="bus_800_1.1" depart="201.40" departLane="430045516_0" departPos="12.10" departSpeed="0.00" departDelay="0.00" arrival="320.20" arrivalLane="-E20_2" arrivalPos="191.27" arrivalSpeed="13.81" duration="118.80" routeLength="1496.70" waitingTime="7.80" waitingCount="1" stopTime="0.00" timeLoss="28.59" rerouteNo="1" devices="tripinfo_bus_800_1.1 routing_bus_800_1.1" vType="DEFAULT_VEHTYPE" speedFactor="1.00" vaporized=""/>
    <tripinfo id="bus_391_1.1" depart="140.60" departLane="430045516_0" departPos="12.10" departSpeed="0.00" departDelay="1.60" arrival="320.40" arrivalLane="-E20_1" arrivalPos="191.27" arrivalSpeed="13.85" duration="179.80" routeLength="1496.70" waitingTime="68.00" waitingCount="1" stopTime="0.00" timeLoss="89.62" rerouteNo="1" devices="tripinfo_bus_391_1.1 routing_bus_391_1.1" vType="DEFAULT_VEHTYPE" speedFactor="1.00" vaporized=""/>
    <tripinfo id="bus_322.1" depart="179.20" departLane="-E2_0" departPos="5.46" departSpeed="0.00" departDelay="0.00" arrival="344.20" arrivalLane="-1272473366_0" arrivalPos="75.80" arrivalSpeed="12.81" duration="165.00" routeLength="1386.50" waitingTime="4.20" waitingCount="3" stopTime="24.00" timeLoss="27.39" rerouteNo="1" devices="tripinfo_bus_322.1 routing_bus_322.1" vType="DEFAULT_VEHTYPE" speedFactor="1.00" vaporized=""/>
    <tripinfo id="bus_339.1" depart="119.20" departLane="154204353.882_0" departPos="12.10" departSpeed="0.00" departDelay="0.00" arrival="362.80" arrivalLane="-E20_0" arrivalPos="191.27" arrivalSpeed="9.46" duration="243.60" routeLength="470.76" waitingTime="47.20" waitingCount="2" stopTime="120.00" timeLoss="55.12" rerouteNo="1" devices="tripinfo_bus_339.1 routing_bus_339.1" vType="DEFAULT_VEHTYPE" speedFactor="1.00" vaporized=""/>
    <tripinfo id="bus_294.0" depart="147.00" departLane="30735492.83_0" departPos="0.00" departSpeed="0.00" departDelay="0.00" arrival="377.80" arrivalLane="-E20_0" arrivalPos="191.27" arrivalSpeed="9.17" duration="230.80" routeLength="1684.91" waitingTime="37.00" waitingCount="2" stopTime="24.00" timeLoss="62.30" rerouteNo="1" devices="tripinfo_bus_294.0 routing_bus_294.0" vType="DEFAULT_VEHTYPE" speedFactor="1.00" vaporized=""/>
    <tripinfo id="bus_155.0" depart="165.00" departLane="-E2_0" departPos="5.83" departSpeed="0.00" departDelay="0.00" arrival="384.40" arrivalLane="430045512#0_0" arrivalPos="367.54" arrivalSpeed="5.89" duration="219.40" routeLength="1552.92" waitingTime="2.40" waitingCount="1" stopTime="40.00" timeLoss="24.85" rerouteNo="1" devices="tripinfo_bus_155.0 routing_bus_155.0" vType="DEFAULT_VEHTYPE" speedFactor="1.00" vaporized=""/>
    <tripinfo id="bus_391_1.2" depart="247.40" departLane="430045516_0" departPos="12.10" departSpeed="0.00" departDelay="0.00" arrival="410.20" arrivalLane="-E20_1" arrivalPos="191.27" arrivalSpeed="13.81" duration="162.80" routeLength="1496.70" waitingTime="51.60" waitingCount="1" stopTime="0.00" timeLoss="72.58" rerouteNo="1" devices="tripinfo_bus_391_1.2 routing_bus_391_1.2" vType="DEFAULT_VEHTYPE" speedFactor="1.00" vaporized=""/>
    <tripinfo id="bus_391_1.3" depart="274.40" departLane="430045516_0" departPos="12.10" departSpeed="0.00" departDelay="0.00" arrival="410.60" arrivalLane="-E20_2" arrivalPos="191.27" arrivalSpeed="13.88" duration="136.20" routeLength="1496.70" waitingTime="24.40" waitingCount="1" stopTime="0.00" timeLoss="46.01" rerouteNo="1" devices="tripinfo_bus_391_1.3 routing_bus_391_1.3" vType="DEFAULT_VEHTYPE" speedFactor="1.00" vaporized=""/>
    <tripinfo id="bus_800_1.2" depart="280.00" departLane="430045516_0" departPos="12.10" departSpeed="0.00" departDelay="2.80" arrival="412.80" arrivalLane="-E20_2" arrivalPos="191.27" arrivalSpeed="13.88" duration="132.80" routeLength="1496.70" waitingTime="16.80" waitingCount="1" stopTime="0.00" timeLoss="42.45" rerouteNo="1" devices="tripinfo_bus_800_1.2 routing_bus_800_1.2" vType="DEFAULT_VEHTYPE" speedFactor="1.00" vaporized=""/>
    <tripinfo id="bus_391_1.4" depart="294.20" departLane="430045516_0" departPos="12.10" departSpeed="0.00" departDelay="0.00" arrival="414.80" arrivalLane="-E20_2" arrivalPos="191.27" arrivalSpeed="13.80" duration="120.60" routeLength="1496.70" waitingTime="3.80" waitingCount="1" stopTime="0.00" timeLoss="30.33" rerouteNo="1" devices="tripinfo_bus_391_1.4 routing_bus_391_1.4" vType="DEFAULT_VEHTYPE" speedFactor="1.00" vaporized=""/>
    <tripinfo id="bus_339.2" depart="255.60" departLane="154204353.882_0" departPos="12.10" departSpeed="0.00" departDelay="0.00" arrival="452.80" arrivalLane="-E20_0" arrivalPos="191.27" arrivalSpeed="9.45" duration="197.20" routeLength="470.18" waitingTime="10.00" waitingCount="2" stopTime="120.00" timeLoss="16.82" rerouteNo="1" devices="tripinfo_bus_339.2 routing_bus_339.2" vType="DEFAULT_VEHTYPE" speedFactor="1.00" vaporized=""/>
    <tripinfo id="bus_294.1" depart="204.60" departLane="30735492.83_0" departPos="0.00" departSpeed="0.00" departDelay="0.00" arrival="467.80" arrivalLane="-E20_0" arrivalPos="191.27" arrivalSpeed="9.36" duration="263.20" routeLength="1684.91" waitingTime="70.80" waitingCount="2" stopTime="24.00" timeLoss="93.47" rerouteNo="1" devices="tripinfo_bus_294.1 routing_bus_294.1" vType="DEFAULT_VEHTYPE" speedFactor="1.00" vaporized=""/>
    <tripinfo id="bus_155.1" depart="328.00" departLane="-E2_0" departPos="5.83" departSpeed="0.00" departDelay="0.00" arrival="579.60" arrivalLane="430045512#0_0" arrivalPos="367.54" arrivalSpeed="5.70" duration="251.60" routeLength="1552.92" waitingTime="26.60" waitingCount="2" stopTime="40.00" timeLoss="49.70" rerouteNo="1" devices="tripinfo_bus_155.1 routing_bus_155.1" vType="DEFAULT_VEHTYPE" speedFactor="1.00" vaporized=""/>
    <tripinfo id="bus_155.2" depart="341.60" departLane="-E2_0" departPos="5.83" departSpeed="0.00" departDelay="0.00" arrival="595.20" arrivalLane="430045512#0_0" arrivalPos="367.54" arrivalSpeed="5.99" duration="253.60" routeLength="1552.92" waitingTime="12.20" waitingCount="3" stopTime="40.00" timeLoss="42.40" rerouteNo="1" devices="tripinfo_bus_155.2 routing_bus_155.2" vType="DEFAULT_VEHTYPE" speedFactor="1.00" vaporized=""/>
    <tripinfo id="bus_339.3" depart="404.20" departLane="154204353.882_0" departPos="12.10" departSpeed="0.00" departDelay="0.00" arrival="632.80" arrivalLane="-E20_0" arrivalPos="191.27" arrivalSpeed="9.29" duration="228.60" routeLength="470.76" waitingTime="40.80" waitingCount="1" stopTime="120.00" timeLoss="47.91" rerouteNo="1" devices="tripinfo_bus_339.3 routing_bus_339.3" vType="DEFAULT_VEHTYPE" speedFactor="1.00" vaporized=""/>
    <tripinfo id="bus_391.0" depart="440.20" departLane="-E2_0" departPos="5.19" departSpeed="0.00" departDelay="0.00" arrival="639.20" arrivalLane="1241633682_1" arrivalPos="85.12" arrivalSpeed="21.92" duration="199.00" routeLength="1493.36" waitingTime="5.80" waitingCount="4" stopTime="32.00" timeLoss="23.70" rerouteNo="1" devices="tripinfo_bus_391.0 routing_bus_391.0" vType="DEFAULT_VEHTYPE" speedFactor="1.00" vaporized=""/>
    <tripinfo id="bus_155.3" depart="426.20" departLane="-E2_0" departPos="5.83" departSpeed="0.00" departDelay="4.20" arrival="662.40" arrivalLane="430045512#0_0" arrivalPos="367.54" arrivalSpeed="5.71" duration="236.20" routeLength="1552.92" waitingTime="5.60" waitingCount="3" stopTime="40.00" timeLoss="29.80" rerouteNo="1" devices="tripinfo_bus_155.3 routing_bus_155.3" vType="DEFAULT_VEHTYPE" speedFactor="1.00" vaporized=""/>
    <tripinfo id="bus_391_1.5" depart="503.00" departLane="430045516_0" departPos="12.10" departSpeed="0.00" departDelay="0.00" arrival="680.20" arrivalLane="-E20_1" arrivalPos="191.27" arrivalSpeed="13.84" duration="177.20" routeLength="1496.70" waitingTime="65.60" waitingCount="1" stopTime="0.00" timeLoss="87.02" rerouteNo="1" devices="tripinfo_bus_391_1.5 routing_bus_391_1.5" vType="DEFAULT_VEHTYPE" speedFactor="1.00" vaporized=""/>
    <tripinfo id="bus_391_1.6" depart="548.20" departLane="430045516_0" departPos="12.10" departSpeed="0.00" departDelay="0.00" arrival="680.20" arrivalLane="-E20_2" arrivalPos="191.27" arrivalSpeed="13.79" duration="132.00" routeLength="1496.70" waitingTime="21.00" waitingCount="1" stopTime="0.00" timeLoss="41.78" rerouteNo="1" devices="tripinfo_bus_391_1.6 routing_bus_391_1.6" vType="DEFAULT_VEHTYPE" speedFactor="1.00" vaporized=""/>
    <tripinfo id="bus_800.0" depart="420.40" departLane="-E2_0" departPos="4.85" departSpeed="0.00" departDelay="0.00" arrival="697.60" arrivalLane="430045512#0_0" arrivalPos="367.54" arrivalSpeed="5.59" duration="277.20" routeLength="2001.62" waitingTime="16.40" waitingCount="3" stopTime="48.00" timeLoss="49.63" rerouteNo="1" devices="tripinfo_bus_800.0 routing_bus_800.0" vType="DEFAULT_VEHTYPE" speedFactor="1.00" vaporized=""/>
    <tripinfo id="bus_339.4" depart="468.20" departLane="154204353.882_0" departPos="12.10" departSpeed="0.00" departDelay="0.00" arrival="700.00" arrivalLane="-E20_0" arrivalPos="191.27" arrivalSpeed="9.03" duration="231.80" routeLength="470.18" waitingTime="43.40" waitingCount="1" stopTime="120.00" timeLoss="47.00" rerouteNo="1" devices="tripinfo_bus_339.4 routing_bus_339.4" vType="DEFAULT_VEHTYPE" speedFactor="1.00" vaporized=""/>
    <tripinfo id="bus_391.1" depart="464.20" departLane="-E2_0" departPos="5.19" departSpeed="0.00" departDelay="0.00" arrival="712.80" arrivalLane="1241633682_1" arrivalPos="85.12" arrivalSpeed="22.13" duration="248.60" routeLength="1493.36" waitingTime="63.00" waitingCount="3" stopTime="32.00" timeLoss="86.77" rerouteNo="1" devices="tripinfo_bus_391.1 routing_bus_391.1" vType="DEFAULT_VEHTYPE" speedFactor="1.00" vaporized=""/>
    <tripinfo id="bus_48.1" depart="347.00" departLane="-E2_0" departPos="4.99" departSpeed="0.00" departDelay="2.60" arrival="715.00" arrivalLane="-E20_0" arrivalPos="191.27" arrivalSpeed="9.29" duration="368.00" routeLength="1813.30" waitingTime="118.40" waitingCount="7" stopTime="32.00" timeLoss="152.20" rerouteNo="1" devices="tripinfo_bus_48.1 routing_bus_48.1" vType="DEFAULT_VEHTYPE" speedFactor="1.00" vaporized=""/>
    <tripinfo id="bus_391.2" depart="515.00" departLane="-E2_0" departPos="5.19" departSpeed="0.00" departDelay="0.00" arrival="728.80" arrivalLane="1241633682_1" arrivalPos="85.12" arrivalSpeed="21.82" duration="213.80" routeLength="1493.36" waitingTime="14.60" waitingCount="4" stopTime="32.00" timeLoss="43.12" rerouteNo="1" devices="tripinfo_bus_391.2 routing_bus_391.2" vType="DEFAULT_VEHTYPE" speedFactor="1.00" vaporized=""/>
    <tripinfo id="bus_48.0" depart="278.60" departLane="-E2_0" departPos="4.99" departSpeed="0.00" departDelay="0.00" arrival="729.80" arrivalLane="-E20_0" arrivalPos="191.27" arrivalSpeed="9.48" duration="451.20" routeLength="1813.30" waitingTime="207.60" waitingCount="6" stopTime="32.00" timeLoss="240.17" rerouteNo="1" devices="tripinfo_bus_48.0 routing_bus_48.0" vType="DEFAULT_VEHTYPE" speedFactor="1.00" vaporized=""/>
    <tripinfo id="bus_294.2" depart="496.60" departLane="30735492.83_0" departPos="0.00" departSpeed="0.00" departDelay="0.00" arrival="745.00" arrivalLane="-E20_0" arrivalPos="191.27" arrivalSpeed="9.19" duration="248.40" routeLength="1684.91" waitingTime="37.80" waitingCount="4" stopTime="24.00" timeLoss="66.02" rerouteNo="1" devices="tripinfo_bus_294.2 routing_bus_294.2" vType="DEFAULT_VEHTYPE" speedFactor="1.00" vaporized=""/>
    <tripinfo id="bus_800_1.3" depart="747.40" departLane="430045516_0" departPos="12.10" departSpeed="0.00" departDelay="0.00" arrival="860.20" arrivalLane="-E20_1" arrivalPos="191.27" arrivalSpeed="13.83" duration="112.80" routeLength="1496.70" waitingTime="1.80" waitingCount="1" stopTime="0.00" timeLoss="22.61" rerouteNo="1" devices="tripinfo_bus_800_1.3 routing_bus_800_1.3" vType="DEFAULT_VEHTYPE" speedFactor="1.00" vaporized=""/>
    <tripinfo id="bus_294.3" depart="674.60" departLane="30735492.83_0" departPos="0.00" departSpeed="0.00" departDelay="0.00" arrival="877.00" arrivalLane="-E20_0" arrivalPos="191.27" arrivalSpeed="9.24" duration="202.40" routeLength="1684.91" waitingTime="22.60" waitingCount="1" stopTime="24.00" timeLoss="41.76" rerouteNo="1" devices="tripinfo_bus_294.3 routing_bus_294.3" vType="DEFAULT_VEHTYPE" speedFactor="1.00" vaporized=""/>
    <tripinfo id="bus_322.2" depart="648.00" departLane="-E2_0" departPos="5.46" departSpeed="0.00" departDelay="0.00" arrival="884.20" arrivalLane="-1272473366_0" arrivalPos="75.80" arrivalSpeed="12.79" duration="236.20" routeLength="1386.50" waitingTime="65.00" waitingCount="4" stopTime="24.00" timeLoss="98.77" rerouteNo="1" devices="tripinfo_bus_322.2 routing_bus_322.2" vType="DEFAULT_VEHTYPE" speedFactor="1.00" vaporized=""/>
    <tripinfo id="bus_322.3" depart="708.60" departLane="-E2_0" departPos="5.46" departSpeed="0.00" departDelay="1.80" arrival="913.00" arrivalLane="-1272473366_0" arrivalPos="75.80" arrivalSpeed="16.56" duration="204.40" routeLength="1386.50" waitingTime="15.40" waitingCount="6" stopTime="24.00" timeLoss="38.58" rerouteNo="1" devices="tripinfo_bus_322.3 routing_bus_322.3" vType="DEFAULT_VEHTYPE" speedFactor="1.00" vaporized=""/>
    <tripinfo id="bus_c339.0" depart="285.00" departLane="-E2_0" departPos="8.67" departSpeed="0.00" departDelay="3.20" arrival="942.00" arrivalLane="-154204353_0" arrivalPos="174.01" arrivalSpeed="5.36" duration="657.00" routeLength="927.45" waitingTime="532.60" waitingCount="2" stopTime="16.00" timeLoss="561.12" rerouteNo="1" devices="tripinfo_bus_c339.0 routing_bus_c339.0" vType="DEFAULT_VEHTYPE" speedFactor="1.00" vaporized=""/>
    <tripinfo id="bus_391_1.7" depart="840.40" departLane="430045516_0" departPos="12.10" departSpeed="0.00" departDelay="0.00" arrival="945.60" arrivalLane="-E20_2" arrivalPos="191.27" arrivalSpeed="13.81" duration="105.20" routeLength="1496.70" waitingTime="0.00" waitingCount="0" stopTime="0.00" timeLoss="14.91" rerouteNo="1" devices="tripinfo_bus_391_1.7 routing_bus_391_1.7" vType="DEFAULT_VEHTYPE" speedFactor="1.00" vaporized=""/>
    <tripinfo id="bus_48.2" depart="682.60" departLane="-E2_0" departPos="4.99" departSpeed="0.00" departDelay="0.00" arrival="967.20" arrivalLane="-E20_0" arrivalPos="191.27" arrivalSpeed="9.33" duration="284.60" routeLength="1813.30" waitingTime="58.40" waitingCount="4" stopTime="32.00" timeLoss="89.55" rerouteNo="1" devices="tripinfo_bus_48.2 routing_bus_48.2" vType="DEFAULT_VEHTYPE" speedFactor="1.00" vaporized=""/>
    <tripinfo id="bus_48.3" depart="703.00" departLane="-E2_0" departPos="4.99" departSpeed="0.00" departDelay="0.00" arrival="982.00" arrivalLane="-E20_0" arrivalPos="191.27" arrivalSpeed="9.44" duration="279.00" routeLength="1813.30" waitingTime="32.40" waitingCount="6" stopTime="32.00" timeLoss="69.42" rerouteNo="1" devices="tripinfo_bus_48.3 routing_bus_48.3" vType="DEFAULT_VEHTYPE" speedFactor="1.00" vaporized=""/>
    <tripinfo id="bus_391.3" depart="792.00" departLane="-E2_0" departPos="5.19" departSpeed="0.00" departDelay="3.20" arrival="982.60" arrivalLane="1241633682_1" arrivalPos="85.12" arrivalSpeed="22.07" duration="190.60" routeLength="1493.36" waitingTime="5.60" waitingCount="3" stopTime="32.00" timeLoss="29.20" rerouteNo="1" devices="tripinfo_bus_391.3 routing_bus_391.3" vType="DEFAULT_VEHTYPE" speedFactor="1.00" vaporized=""/>
    <tripinfo id="bus_294.4" depart="780.80" departLane="30735492.83_0" departPos="0.00" departSpeed="0.00" departDelay="0.00" arrival="997.40" arrivalLane="-E20_0" arrivalPos="191.27" arrivalSpeed="8.99" duration="216.60" routeLength="1684.91" waitingTime="7.60" waitingCount="2" stopTime="24.00" timeLoss="34.09" rerouteNo="1" devices="tripinfo_bus_294.4 routing_bus_294.4" vType="DEFAULT_VEHTYPE" speedFactor="1.00" vaporized=""/>
    <tripinfo id="bus_800_1.4" depart="909.00" departLane="430045516_0" departPos="12.10" departSpeed="0.00" departDelay="0.00" arrival="1040.40" arrivalLane="-E20_1" arrivalPos="191.27" arrivalSpeed="13.81" duration="131.40" routeLength="1496.70" waitingTime="19.80" waitingCount="1" stopTime="0.00" timeLoss="41.15" rerouteNo="1" devices="tripinfo_bus_800_1.4 routing_bus_800_1.4" vType="DEFAULT_VEHTYPE" speedFactor="1.00" vaporized=""/>
    <tripinfo id="bus_294.5" depart="817.60" departLane="30735492.83_0" departPos="0.00" departSpeed="0.00" departDelay="0.00" arrival="1056.60" arrivalLane="-E20_0" arrivalPos="191.27" arrivalSpeed="9.32" duration="239.00" routeLength="1684.91" waitingTime="58.60" waitingCount="1" stopTime="24.00" timeLoss="78.68" rerouteNo="1" devices="tripinfo_bus_294.5 routing_bus_294.5" vType="DEFAULT_VEHTYPE" speedFactor="1.00" vaporized=""/>
    <tripinfo id="bus_155.4" depart="856.20" departLane="-E2_0" departPos="5.83" departSpeed="0.00" departDelay="0.00" arrival="1060.80" arrivalLane="430045512#0_0" arrivalPos="367.54" arrivalSpeed="5.95" duration="204.60" routeLength="1552.92" waitingTime="0.20" waitingCount="1" stopTime="40.00" timeLoss="19.43" rerouteNo="1" devices="tripinfo_bus_155.4 routing_bus_155.4" vType="DEFAULT_VEHTYPE" speedFactor="1.00" vaporized=""/>
    <tripinfo id="bus_391.4" depart="866.40" departLane="-E2_0" departPos="5.19" departSpeed="0.00" departDelay="0.00" arrival="1073.60" arrivalLane="1241633682_1" arrivalPos="85.12" arrivalSpeed="22.15" duration="207.20" routeLength="1493.36" waitingTime="18.60" waitingCount="3" stopTime="32.00" timeLoss="43.70" rerouteNo="1" devices="tripinfo_bus_391.4 routing_bus_391.4" vType="DEFAULT_VEHTYPE" speedFactor="1.00" vaporized=""/>
    <tripinfo id="bus_155.5" depart="917.80" departLane="-E2_0" departPos="5.83" departSpeed="0.00" departDelay="0.00" arrival="1148.20" arrivalLane="430045512#0_0" arrivalPos="367.54" arrivalSpeed="5.71" duration="230.40" routeLength="1552.92" waitingTime="14.20" waitingCount="1" stopTime="40.00" timeLoss="38.56" rerouteNo="1" devices="tripinfo_bus_155.5 routing_bus_155.5" vType="DEFAULT_VEHTYPE" speedFactor="1.00" vaporized=""/>
    <tripinfo id="bus_391.5" depart="987.80" departLane="-E2_0" departPos="5.19" departSpeed="0.00" departDelay="0.00" arrival="1163.20" arrivalLane="1241633682_1" arrivalPos="85.12" arrivalSpeed="22.00" duration="175.40" routeLength="1493.36" waitingTime="0.40" waitingCount="2" stopTime="32.00" timeLoss="14.54" rerouteNo="1" devices="tripinfo_bus_391.5 routing_bus_391.5" vType="DEFAULT_VEHTYPE" speedFactor="1.00" vaporized=""/>
