<<<<<<< HEAD
<?xml version="1.0" encoding="UTF-8"?>

<!-- generated on 2026-05-28T10:40:48.398363+03:00 by Eclipse SUMO GUI 1.26.0
<sumoConfiguration xmlns:xsi="http://www.w3.org/2001/XMLSchema-instance" xsi:noNamespaceSchemaLocation="http://sumo.dlr.de/xsd/sumoConfiguration.xsd">

    <input>
        <net-file value="C:\Mac\Home\Downloads\sumka\2026-05-03-12-56-33\osm.net.xml.gz"/>
        <route-files value="C:\Mac\Home\Downloads\sumka\2026-05-03-12-56-33\osm.passenger.trips.xml"/>
        <additional-files value="C:\Mac\Home\Downloads\sumka\2026-05-03-12-56-33\osm.poly.xml.gz,C:\Mac\Home\Downloads\sumka\2026-05-03-12-56-33\osm_stops.add.xml,C:\Mac\Home\Downloads\sumka\2026-05-03-12-56-33\output.add.xml,C:\Mac\Home\Downloads\sumka\2026-05-03-12-56-33\osm.dat.add.xml"/>
    </input>

    <output>
        <tripinfo-output value="C:\Mac\Home\Downloads\sumka\2026-05-03-12-56-33\tripinfos.xml"/>
        <stop-output value="C:\Mac\Home\Downloads\sumka\2026-05-03-12-56-33\stopinfos.xml"/>
        <statistic-output value="C:\Mac\Home\Downloads\sumka\2026-05-03-12-56-33\stats.xml"/>
    </output>

    <time>
        <step-length value="0.2"/>
    </time>

    <processing>
        <ignore-route-errors value="true"/>
        <tls.actuated.jam-threshold value="30"/>
    </processing>

    <routing>
        <device.rerouting.adaptation-steps value="18"/>
        <device.rerouting.adaptation-interval value="10"/>
    </routing>

    <report>
        <verbose value="true"/>
        <duration-log.statistics value="true"/>
        <no-step-log value="true"/>
    </report>

    <gui_only>
        <gui-settings-file value="C:\Mac\Home\Downloads\sumka\2026-05-03-12-56-33\osm.view.xml"/>
        <delay value="100"/>
    </gui_only>

</sumoConfig-->

<tripinfos xmlns:xsi="http://www.w3.org/2001/XMLSchema-instance" xsi:noNamespaceSchemaLocation="http://sumo.dlr.de/xsd/tripinfo_file.xsd">
</tripinfos>
ipinfos>
=======
<?xml version="1.0" encoding="UTF-8"?>

<!-- generated on 2026-05-29T14:34:21.403649+03:00 by Eclipse SUMO GUI v1_26_0+1000-c71e510aa5d
<sumoConfiguration xmlns:xsi="http://www.w3.org/2001/XMLSchema-instance" xsi:noNamespaceSchemaLocation="http://sumo.dlr.de/xsd/sumoConfiguration.xsd">

    <input>
        <net-file value="/mnt/extra/git_projects/Sumo_repo/2026-05-03-12-56-33/osm.net.xml.gz"/>
        <route-files value="/mnt/extra/git_projects/Sumo_repo/2026-05-03-12-56-33/osm.passenger.trips.xml"/>
        <additional-files value="/mnt/extra/git_projects/Sumo_repo/2026-05-03-12-56-33/osm.poly.xml.gz,/mnt/extra/git_projects/Sumo_repo/2026-05-03-12-56-33/osm_stops.add.xml,/mnt/extra/git_projects/Sumo_repo/2026-05-03-12-56-33/output.add.xml,/mnt/extra/git_projects/Sumo_repo/2026-05-03-12-56-33/osm.dat.add.xml"/>
    </input>

    <output>
        <tripinfo-output value="/mnt/extra/git_projects/Sumo_repo/2026-05-03-12-56-33/tripinfos.xml"/>
        <stop-output value="/mnt/extra/git_projects/Sumo_repo/2026-05-03-12-56-33/stopinfos.xml"/>
        <statistic-output value="/mnt/extra/git_projects/Sumo_repo/2026-05-03-12-56-33/stats.xml"/>
    </output>

    <time>
        <step-length value="0.2"/>
    </time>

    <processing>
        <ignore-route-errors value="true"/>
        <tls.actuated.jam-threshold value="30"/>
    </processing>

    <routing>
        <device.rerouting.adaptation-steps value="18"/>
        <device.rerouting.adaptation-interval value="10"/>
    </routing>

    <report>
        <verbose value="true"/>
        <duration-log.statistics value="true"/>
        <no-step-log value="true"/>
    </report>

    <gui_only>
        <gui-settings-file value="/mnt/extra/git_projects/Sumo_repo/2026-05-03-12-56-33/osm.view.xml"/>
        <delay value="100"/>
    </gui_only>

</sumoConfiguration>
-->

<tripinfos xmlns:xsi="http://www.w3.org/2001/XMLSchema-instance" xsi:noNamespaceSchemaLocation="http://sumo.dlr.de/xsd/tripinfo_file.xsd">
    <tripinfo id="bus_339.0" depart="3.00" departLane="154204353.882_2" departPos="12.10" departSpeed="0.00" departDelay="0.00" arrival="224.20" arrivalLane="-E20_0" arrivalPos="196.71" arrivalSpeed="9.70" duration="221.20" routeLength="471.97" waitingTime="31.20" waitingCount="2" stopTime="120.00" timeLoss="38.18" rerouteNo="1" devices="tripinfo_bus_339.0 routing_bus_339.0" vType="DEFAULT_VEHTYPE" speedFactor="1.00" vaporized=""/>
    <tripinfo id="bus_339.1" depart="96.80" departLane="154204353.882_2" departPos="12.10" departSpeed="0.00" departDelay="0.00" arrival="317.40" arrivalLane="-E20_0" arrivalPos="196.71" arrivalSpeed="9.98" duration="220.60" routeLength="471.97" waitingTime="29.40" waitingCount="2" stopTime="120.00" timeLoss="36.91" rerouteNo="1" devices="tripinfo_bus_339.1 routing_bus_339.1" vType="DEFAULT_VEHTYPE" speedFactor="1.00" vaporized=""/>
    <tripinfo id="bus_800.0" depart="36.80" departLane="-E2_2" departPos="0.00" departSpeed="0.00" departDelay="0.00" arrival="322.00" arrivalLane="430045512#0_0" arrivalPos="367.54" arrivalSpeed="5.78" duration="285.20" routeLength="1978.11" waitingTime="21.80" waitingCount="2" stopTime="48.00" timeLoss="53.63" rerouteNo="1" devices="tripinfo_bus_800.0 routing_bus_800.0" vType="DEFAULT_VEHTYPE" speedFactor="1.00" vaporized=""/>
    <tripinfo id="bus_800_1.0" depart="197.00" departLane="430045516_0" departPos="12.10" departSpeed="0.00" departDelay="0.00" arrival="326.20" arrivalLane="-E20_0" arrivalPos="196.71" arrivalSpeed="13.89" duration="129.20" routeLength="1496.35" waitingTime="15.20" waitingCount="1" stopTime="0.00" timeLoss="38.97" rerouteNo="1" devices="tripinfo_bus_800_1.0 routing_bus_800_1.0" vType="DEFAULT_VEHTYPE" speedFactor="1.00" vaporized=""/>
    <tripinfo id="bus_391_1.0" depart="181.40" departLane="430045516_0" departPos="12.10" departSpeed="0.00" departDelay="0.00" arrival="326.40" arrivalLane="-E20_0" arrivalPos="196.71" arrivalSpeed="13.80" duration="145.00" routeLength="1496.35" waitingTime="33.20" waitingCount="1" stopTime="0.00" timeLoss="54.82" rerouteNo="1" devices="tripinfo_bus_391_1.0 routing_bus_391_1.0" vType="DEFAULT_VEHTYPE" speedFactor="1.00" vaporized=""/>
    <tripinfo id="bus_391_1.1" depart="221.60" departLane="430045516_0" departPos="12.10" departSpeed="0.00" departDelay="0.00" arrival="328.60" arrivalLane="-E20_1" arrivalPos="196.71" arrivalSpeed="13.83" duration="107.00" routeLength="1496.35" waitingTime="0.00" waitingCount="0" stopTime="0.00" timeLoss="16.67" rerouteNo="1" devices="tripinfo_bus_391_1.1 routing_bus_391_1.1" vType="DEFAULT_VEHTYPE" speedFactor="1.00" vaporized=""/>
    <tripinfo id="bus_m3.0" depart="21.20" departLane="28053297#0_2" departPos="12.10" departSpeed="0.00" departDelay="0.00" arrival="335.20" arrivalLane="1241633682_1" arrivalPos="85.12" arrivalSpeed="22.12" duration="314.00" routeLength="2832.21" waitingTime="43.40" waitingCount="2" stopTime="24.00" timeLoss="81.98" rerouteNo="1" devices="tripinfo_bus_m3.0 routing_bus_m3.0" vType="DEFAULT_VEHTYPE" speedFactor="1.00" vaporized=""/>
    <tripinfo id="bus_800_1.1" depart="310.00" departLane="430045516_0" departPos="12.10" departSpeed="0.00" departDelay="0.00" arrival="411.80" arrivalLane="-E20_1" arrivalPos="196.71" arrivalSpeed="13.85" duration="101.80" routeLength="1496.35" waitingTime="0.00" waitingCount="0" stopTime="0.00" timeLoss="11.57" rerouteNo="1" devices="tripinfo_bus_800_1.1 routing_bus_800_1.1" vType="DEFAULT_VEHTYPE" speedFactor="1.00" vaporized=""/>
    <tripinfo id="bus_m3.1" depart="131.00" departLane="28053297#0_2" departPos="12.10" departSpeed="0.00" departDelay="0.00" arrival="441.20" arrivalLane="1241633682_1" arrivalPos="85.12" arrivalSpeed="22.12" duration="310.20" routeLength="2832.21" waitingTime="34.40" waitingCount="2" stopTime="24.00" timeLoss="78.73" rerouteNo="1" devices="tripinfo_bus_m3.1 routing_bus_m3.1" vType="DEFAULT_VEHTYPE" speedFactor="1.00" vaporized=""/>
    <tripinfo id="bus_155.0" depart="154.60" departLane="-E2_0" departPos="0.00" departSpeed="0.00" departDelay="1.60" arrival="444.60" arrivalLane="430045512#0_0" arrivalPos="367.54" arrivalSpeed="5.67" duration="290.00" routeLength="1558.43" waitingTime="83.60" waitingCount="3" stopTime="32.00" timeLoss="100.24" rerouteNo="1" devices="tripinfo_bus_155.0 routing_bus_155.0" vType="DEFAULT_VEHTYPE" speedFactor="1.00" vaporized=""/>
    <tripinfo id="bus_155.1" depart="209.20" departLane="-E2_0" departPos="0.00" departSpeed="0.00" departDelay="0.00" arrival="460.60" arrivalLane="430045512#0_0" arrivalPos="367.54" arrivalSpeed="5.76" duration="251.40" routeLength="1558.43" waitingTime="17.40" waitingCount="5" stopTime="32.00" timeLoss="38.93" rerouteNo="1" devices="tripinfo_bus_155.1 routing_bus_155.1" vType="DEFAULT_VEHTYPE" speedFactor="1.00" vaporized=""/>
    <tripinfo id="bus_800_1.2" depart="375.60" departLane="430045516_0" departPos="12.10" departSpeed="0.00" departDelay="0.00" arrival="506.20" arrivalLane="-E20_0" arrivalPos="196.71" arrivalSpeed="13.79" duration="130.60" routeLength="1496.35" waitingTime="19.20" waitingCount="1" stopTime="0.00" timeLoss="40.36" rerouteNo="1" devices="tripinfo_bus_800_1.2 routing_bus_800_1.2" vType="DEFAULT_VEHTYPE" speedFactor="1.00" vaporized=""/>
    <tripinfo id="bus_800_1.3" depart="381.20" departLane="430045516_0" departPos="12.10" departSpeed="0.00" departDelay="2.40" arrival="508.40" arrivalLane="-E20_1" arrivalPos="196.71" arrivalSpeed="13.81" duration="127.20" routeLength="1496.35" waitingTime="11.00" waitingCount="1" stopTime="0.00" timeLoss="36.89" rerouteNo="1" devices="tripinfo_bus_800_1.3 routing_bus_800_1.3" vType="DEFAULT_VEHTYPE" speedFactor="1.00" vaporized=""/>
    <tripinfo id="bus_294.0" depart="281.20" departLane="30735492.83_0" departPos="0.00" departSpeed="0.00" departDelay="0.00" arrival="523.20" arrivalLane="-E20_0" arrivalPos="196.71" arrivalSpeed="9.51" duration="242.00" routeLength="1684.55" waitingTime="61.80" waitingCount="1" stopTime="24.00" timeLoss="81.77" rerouteNo="1" devices="tripinfo_bus_294.0 routing_bus_294.0" vType="DEFAULT_VEHTYPE" speedFactor="1.00" vaporized=""/>
    <tripinfo id="bus_48.0" depart="161.60" departLane="-E2_1" departPos="0.00" departSpeed="0.00" departDelay="0.00" arrival="538.00" arrivalLane="-E20_0" arrivalPos="196.71" arrivalSpeed="9.38" duration="376.40" routeLength="1817.51" waitingTime="122.80" waitingCount="5" stopTime="32.00" timeLoss="158.82" rerouteNo="1" devices="tripinfo_bus_48.0 routing_bus_48.0" vType="DEFAULT_VEHTYPE" speedFactor="1.00" vaporized=""/>
    <tripinfo id="bus_391.0" depart="148.80" departLane="-E2_3" departPos="0.00" departSpeed="0.00" departDelay="0.00" arrival="569.40" arrivalLane="1241633682_1" arrivalPos="85.12" arrivalSpeed="22.15" duration="420.60" routeLength="1469.21" waitingTime="28.80" waitingCount="1" stopTime="240.00" timeLoss="51.45" rerouteNo="1" devices="tripinfo_bus_391.0 routing_bus_391.0" vType="DEFAULT_VEHTYPE" speedFactor="1.00" vaporized=""/>
    <tripinfo id="bus_391_1.2" depart="484.20" departLane="430045516_0" departPos="12.10" departSpeed="0.00" departDelay="0.00" arrival="592.60" arrivalLane="-E20_0" arrivalPos="196.71" arrivalSpeed="13.83" duration="108.40" routeLength="1496.35" waitingTime="0.00" waitingCount="0" stopTime="0.00" timeLoss="18.14" rerouteNo="1" devices="tripinfo_bus_391_1.2 routing_bus_391_1.2" vType="DEFAULT_VEHTYPE" speedFactor="1.00" vaporized=""/>
    <tripinfo id="bus_155.2" depart="360.80" departLane="-E2_0" departPos="0.00" departSpeed="0.00" departDelay="0.00" arrival="601.80" arrivalLane="430045512#0_0" arrivalPos="367.54" arrivalSpeed="5.74" duration="241.00" routeLength="1558.43" waitingTime="35.00" waitingCount="3" stopTime="32.00" timeLoss="50.50" rerouteNo="1" devices="tripinfo_bus_155.2 routing_bus_155.2" vType="DEFAULT_VEHTYPE" speedFactor="1.00" vaporized=""/>
    <tripinfo id="bus_391.1" depart="225.00" departLane="-E2_3" departPos="0.00" departSpeed="0.00" departDelay="0.00" arrival="659.40" arrivalLane="1241633682_1" arrivalPos="85.12" arrivalSpeed="22.11" duration="434.40" routeLength="1469.21" waitingTime="19.40" waitingCount="4" stopTime="240.00" timeLoss="46.52" rerouteNo="1" devices="tripinfo_bus_391.1 routing_bus_391.1" vType="DEFAULT_VEHTYPE" speedFactor="1.00" vaporized=""/>
    <tripinfo id="bus_m3.2" depart="306.40" departLane="28053297#0_2" departPos="12.10" departSpeed="0.00" departDelay="0.00" arrival="673.80" arrivalLane="1241633682_1" arrivalPos="85.12" arrivalSpeed="22.19" duration="367.40" routeLength="2832.21" waitingTime="82.60" waitingCount="3" stopTime="24.00" timeLoss="127.89" rerouteNo="1" devices="tripinfo_bus_m3.2 routing_bus_m3.2" vType="DEFAULT_VEHTYPE" speedFactor="1.00" vaporized=""/>
    <tripinfo id="bus_391_1.3" depart="510.60" departLane="430045516_0" departPos="12.10" departSpeed="0.00" departDelay="0.00" arrival="686.40" arrivalLane="-E20_0" arrivalPos="196.71" arrivalSpeed="13.84" duration="175.80" routeLength="1496.35" waitingTime="64.00" waitingCount="1" stopTime="0.00" timeLoss="85.50" rerouteNo="1" devices="tripinfo_bus_391_1.3 routing_bus_391_1.3" vType="DEFAULT_VEHTYPE" speedFactor="1.00" vaporized=""/>
    <tripinfo id="bus_48.1" depart="323.60" departLane="-E2_1" departPos="0.00" departSpeed="0.00" departDelay="0.00" arrival="705.00" arrivalLane="-E20_0" arrivalPos="196.71" arrivalSpeed="9.79" duration="381.40" routeLength="1817.51" waitingTime="139.00" waitingCount="4" stopTime="32.00" timeLoss="174.59" rerouteNo="1" devices="tripinfo_bus_48.1 routing_bus_48.1" vType="DEFAULT_VEHTYPE" speedFactor="1.00" vaporized=""/>
    <tripinfo id="bus_155.3" depart="464.20" departLane="-E2_0" departPos="0.00" departSpeed="0.00" departDelay="0.00" arrival="714.00" arrivalLane="430045512#0_0" arrivalPos="367.54" arrivalSpeed="5.50" duration="249.80" routeLength="1558.43" waitingTime="53.40" waitingCount="2" stopTime="32.00" timeLoss="66.24" rerouteNo="1" devices="tripinfo_bus_155.3 routing_bus_155.3" vType="DEFAULT_VEHTYPE" speedFactor="1.00" vaporized=""/>
    <tripinfo id="bus_391.2" depart="305.00" departLane="-E2_3" departPos="0.00" departSpeed="0.00" departDelay="0.00" arrival="749.60" arrivalLane="1241633682_1" arrivalPos="85.12" arrivalSpeed="22.17" duration="444.60" routeLength="1469.21" waitingTime="45.20" waitingCount="2" stopTime="240.00" timeLoss="69.05" rerouteNo="1" devices="tripinfo_bus_391.2 routing_bus_391.2" vType="DEFAULT_VEHTYPE" speedFactor="1.00" vaporized=""/>
    <tripinfo id="bus_391.3" depart="444.60" departLane="-E2_3" departPos="0.00" departSpeed="0.00" departDelay="0.00" arrival="838.80" arrivalLane="1241633682_1" arrivalPos="85.12" arrivalSpeed="22.07" duration="394.20" routeLength="1469.21" waitingTime="3.20" waitingCount="1" stopTime="240.00" timeLoss="25.09" rerouteNo="1" devices="tripinfo_bus_391.3 routing_bus_391.3" vType="DEFAULT_VEHTYPE" speedFactor="1.00" vaporized=""/>
    <tripinfo id="bus_m3.3" depart="462.40" departLane="28053297#0_2" departPos="12.10" departSpeed="0.00" departDelay="0.00" arrival="854.00" arrivalLane="1241633682_1" arrivalPos="85.12" arrivalSpeed="22.02" duration="391.60" routeLength="2832.21" waitingTime="103.20" waitingCount="4" stopTime="24.00" timeLoss="144.14" rerouteNo="1" devices="tripinfo_bus_m3.3 routing_bus_m3.3" vType="DEFAULT_VEHTYPE" speedFactor="1.00" vaporized=""/>
    <tripinfo id="bus_391.4" depart="515.00" departLane="-E2_3" departPos="0.00" departSpeed="0.00" departDelay="0.00" arrival="928.40" arrivalLane="1241633682_1" arrivalPos="85.12" arrivalSpeed="22.12" duration="413.40" routeLength="1469.21" waitingTime="14.80" waitingCount="2" stopTime="240.00" timeLoss="37.54" rerouteNo="1" devices="tripinfo_bus_391.4 routing_bus_391.4" vType="DEFAULT_VEHTYPE" speedFactor="1.00" vaporized=""/>
    <tripinfo id="bus_m3.4" depart="566.40" departLane="28053297#0_2" departPos="12.10" departSpeed="0.00" departDelay="0.00" arrival="943.60" arrivalLane="1241633682_1" arrivalPos="85.12" arrivalSpeed="22.15" duration="377.20" routeLength="2832.21" waitingTime="83.80" waitingCount="4" stopTime="24.00" timeLoss="137.21" rerouteNo="1" devices="tripinfo_bus_m3.4 routing_bus_m3.4" vType="DEFAULT_VEHTYPE" speedFactor="1.00" vaporized=""/>
    <tripinfo id="bus_391_1.4" depart="822.20" departLane="430045516_0" departPos="12.10" departSpeed="0.00" departDelay="0.00" arrival="956.40" arrivalLane="-E20_0" arrivalPos="196.71" arrivalSpeed="13.88" duration="134.20" routeLength="1496.35" waitingTime="22.80" waitingCount="1" stopTime="0.00" timeLoss="43.91" rerouteNo="1" devices="tripinfo_bus_391_1.4 routing_bus_391_1.4" vType="DEFAULT_VEHTYPE" speedFactor="1.00" vaporized=""/>
    <tripinfo id="bus_391_1.5" depart="858.80" departLane="430045516_0" departPos="12.10" departSpeed="0.00" departDelay="0.00" arrival="960.60" arrivalLane="-E20_1" arrivalPos="196.71" arrivalSpeed="13.87" duration="101.80" routeLength="1496.35" waitingTime="0.00" waitingCount="0" stopTime="0.00" timeLoss="11.44" rerouteNo="1" devices="tripinfo_bus_391_1.5 routing_bus_391_1.5" vType="DEFAULT_VEHTYPE" speedFactor="1.00" vaporized=""/>
    <tripinfo id="bus_800_1.4" depart="867.60" departLane="430045516_0" departPos="12.10" departSpeed="0.00" departDelay="0.00" arrival="969.40" arrivalLane="-E20_1" arrivalPos="196.71" arrivalSpeed="13.78" duration="101.80" routeLength="1496.35" waitingTime="0.00" waitingCount="0" stopTime="0.00" timeLoss="11.61" rerouteNo="1" devices="tripinfo_bus_800_1.4 routing_bus_800_1.4" vType="DEFAULT_VEHTYPE" speedFactor="1.00" vaporized=""/>
    <tripinfo id="bus_294.1" depart="773.40" departLane="30735492.83_0" departPos="0.00" departSpeed="0.00" departDelay="0.00" arrival="973.20" arrivalLane="-E20_0" arrivalPos="196.71" arrivalSpeed="9.75" duration="199.80" routeLength="1684.55" waitingTime="20.00" waitingCount="2" stopTime="24.00" timeLoss="38.92" rerouteNo="1" devices="tripinfo_bus_294.1 routing_bus_294.1" vType="DEFAULT_VEHTYPE" speedFactor="1.00" vaporized=""/>
    <tripinfo id="bus_322.0" depart="712.80" departLane="-E2_0" departPos="0.00" departSpeed="0.00" departDelay="0.00" arrival="1004.00" arrivalLane="-1272473366_0" arrivalPos="80.43" arrivalSpeed="13.27" duration="291.20" routeLength="1396.17" waitingTime="82.20" waitingCount="6" stopTime="24.00" timeLoss="123.95" rerouteNo="1" devices="tripinfo_bus_322.0 routing_bus_322.0" vType="DEFAULT_VEHTYPE" speedFactor="1.00" vaporized=""/>
    <tripinfo id="bus_391.5" depart="535.80" departLane="-E2_3" departPos="0.00" departSpeed="0.00" departDelay="0.00" arrival="1018.80" arrivalLane="1241633682_1" arrivalPos="85.12" arrivalSpeed="22.15" duration="483.00" routeLength="1469.21" waitingTime="84.80" waitingCount="2" stopTime="240.00" timeLoss="107.22" rerouteNo="1" devices="tripinfo_bus_391.5 routing_bus_391.5" vType="DEFAULT_VEHTYPE" speedFactor="1.00" vaporized=""/>
    <tripinfo id="bus_391_1.6" depart="926.60" departLane="430045516_0" departPos="12.10" departSpeed="0.00" departDelay="0.00" arrival="1048.60" arrivalLane="-E20_1" arrivalPos="196.71" arrivalSpeed="13.81" duration="122.00" routeLength="1496.35" waitingTime="5.60" waitingCount="1" stopTime="0.00" timeLoss="31.63" rerouteNo="1" devices="tripinfo_bus_391_1.6 routing_bus_391_1.6" vType="DEFAULT_VEHTYPE" speedFactor="1.00" vaporized=""/>
    <tripinfo id="bus_48.2" depart="603.00" departLane="-E2_1" departPos="0.00" departSpeed="0.00" departDelay="0.00" arrival="1063.20" arrivalLane="-E20_0" arrivalPos="196.71" arrivalSpeed="9.86" duration="460.20" routeLength="1817.51" waitingTime="222.60" waitingCount="5" stopTime="32.00" timeLoss="251.16" rerouteNo="1" devices="tripinfo_bus_48.2 routing_bus_48.2" vType="DEFAULT_VEHTYPE" speedFactor="1.00" vaporized=""/>
    <tripinfo id="bus_391.6" depart="546.20" departLane="-E2_3" departPos="0.00" departSpeed="0.00" departDelay="0.00" arrival="1087.20" arrivalLane="1241633682_1" arrivalPos="85.12" arrivalSpeed="22.21" duration="541.00" routeLength="1469.21" waitingTime="135.00" waitingCount="3" stopTime="240.00" timeLoss="150.13" rerouteNo="1" devices="tripinfo_bus_391.6 routing_bus_391.6" vType="DEFAULT_VEHTYPE" speedFactor="1.00" vaporized=""/>
    <tripinfo id="bus_m3.5" depart="750.80" departLane="28053297#0_2" departPos="12.10" departSpeed="0.00" departDelay="0.00" arrival="1102.20" arrivalLane="1241633682_1" arrivalPos="85.12" arrivalSpeed="22.11" duration="351.40" routeLength="2832.21" waitingTime="63.40" waitingCount="3" stopTime="24.00" timeLoss="112.49" rerouteNo="1" devices="tripinfo_bus_m3.5 routing_bus_m3.5" vType="DEFAULT_VEHTYPE" speedFactor="1.00" vaporized=""/>
    <tripinfo id="bus_294.2" depart="941.80" departLane="30735492.83_0" departPos="0.00" departSpeed="0.00" departDelay="0.00" arrival="1153.20" arrivalLane="-E20_0" arrivalPos="196.71" arrivalSpeed="9.61" duration="211.40" routeLength="1684.55" waitingTime="31.40" waitingCount="1" stopTime="24.00" timeLoss="50.11" rerouteNo="1" devices="tripinfo_bus_294.2 routing_bus_294.2" vType="DEFAULT_VEHTYPE" speedFactor="1.00" vaporized=""/>
    <tripinfo id="bus_48.3" depart="777.40" departLane="-E2_1" departPos="0.00" departSpeed="0.00" departDelay="0.00" arrival="1168.20" arrivalLane="-E20_0" arrivalPos="196.71" arrivalSpeed="9.72" duration="390.80" routeLength="1817.51" waitingTime="142.40" waitingCount="5" stopTime="32.00" timeLoss="179.33" rerouteNo="1" devices="tripinfo_bus_48.3 routing_bus_48.3" vType="DEFAULT_VEHTYPE" speedFactor="1.00" vaporized=""/>
    <tripinfo id="bus_391.7" depart="742.00" departLane="-E2_3" departPos="0.00" departSpeed="0.00" departDelay="0.00" arrival="1199.00" arrivalLane="1241633682_1" arrivalPos="85.12" arrivalSpeed="22.21" duration="457.00" routeLength="1469.21" waitingTime="58.20" waitingCount="2" stopTime="240.00" timeLoss="80.69" rerouteNo="1" devices="tripinfo_bus_391.7 routing_bus_391.7" vType="DEFAULT_VEHTYPE" speedFactor="1.00" vaporized=""/>
    <tripinfo id="bus_800_1.5" depart="1090.20" departLane="430045516_0" departPos="12.10" departSpeed="0.00" departDelay="0.00" arrival="1231.20" arrivalLane="-E20_1" arrivalPos="196.71" arrivalSpeed="13.79" duration="141.00" routeLength="1496.35" waitingTime="24.40" waitingCount="1" stopTime="0.00" timeLoss="50.73" rerouteNo="1" devices="tripinfo_bus_800_1.5 routing_bus_800_1.5" vType="DEFAULT_VEHTYPE" speedFactor="1.00" vaporized=""/>
    <tripinfo id="bus_391_1.7" depart="1116.20" departLane="430045516_0" departPos="12.10" departSpeed="0.00" departDelay="0.00" arrival="1233.00" arrivalLane="-E20_2" arrivalPos="196.71" arrivalSpeed="13.79" duration="116.80" routeLength="1496.35" waitingTime="0.00" waitingCount="0" stopTime="0.00" timeLoss="26.57" rerouteNo="1" devices="tripinfo_bus_391_1.7 routing_bus_391_1.7" vType="DEFAULT_VEHTYPE" speedFactor="1.00" vaporized=""/>
    <tripinfo id="bus_339.2" depart="1000.00" departLane="154204353.882_2" departPos="12.10" departSpeed="0.00" departDelay="0.00" arrival="1234.80" arrivalLane="-E20_0" arrivalPos="196.71" arrivalSpeed="9.81" duration="234.80" routeLength="471.97" waitingTime="27.80" waitingCount="3" stopTime="120.00" timeLoss="37.65" rerouteNo="1" devices="tripinfo_bus_339.2 routing_bus_339.2" vType="DEFAULT_VEHTYPE" speedFactor="1.00" vaporized=""/>
    <tripinfo id="bus_391.8" depart="865.80" departLane="-E2_3" departPos="0.00" departSpeed="0.00" departDelay="0.00" arrival="1289.00" arrivalLane="1241633682_1" arrivalPos="85.12" arrivalSpeed="22.12" duration="423.20" routeLength="1469.21" waitingTime="32.40" waitingCount="1" stopTime="240.00" timeLoss="54.67" rerouteNo="1" devices="tripinfo_bus_391.8 routing_bus_391.8" vType="DEFAULT_VEHTYPE" speedFactor="1.00" vaporized=""/>
    <tripinfo id="bus_339.3" depart="1086.60" departLane="154204353.882_2" departPos="12.10" departSpeed="0.00" departDelay="0.00" arrival="1302.00" arrivalLane="-E20_0" arrivalPos="196.71" arrivalSpeed="9.93" duration="215.40" routeLength="471.97" waitingTime="20.60" waitingCount="1" stopTime="120.00" timeLoss="29.28" rerouteNo="1" devices="tripinfo_bus_339.3 routing_bus_339.3" vType="DEFAULT_VEHTYPE" speedFactor="1.00" vaporized=""/>
    <tripinfo id="bus_m3.6" depart="899.20" departLane="28053297#0_2" departPos="12.10" departSpeed="0.00" departDelay="0.00" arrival="1303.80" arrivalLane="1241633682_1" arrivalPos="85.12" arrivalSpeed="22.16" duration="404.60" routeLength="2832.21" waitingTime="116.60" waitingCount="4" stopTime="24.00" timeLoss="158.24" rerouteNo="1" devices="tripinfo_bus_m3.6 routing_bus_m3.6" vType="DEFAULT_VEHTYPE" speedFactor="1.00" vaporized=""/>
    <tripinfo id="bus_391_1.8" depart="1211.20" departLane="430045516_0" departPos="12.10" departSpeed="0.00" departDelay="0.00" arrival="1313.20" arrivalLane="-E20_1" arrivalPos="196.71" arrivalSpeed="13.86" duration="102.00" routeLength="1496.35" waitingTime="0.00" waitingCount="0" stopTime="0.00" timeLoss="11.67" rerouteNo="1" devices="tripinfo_bus_391_1.8 routing_bus_391_1.8" vType="DEFAULT_VEHTYPE" speedFactor="1.00" vaporized=""/>
    <tripinfo id="bus_48.4" depart="953.00" departLane="-E2_1" departPos="0.00" departSpeed="0.00" departDelay="0.00" arrival="1317.00" arrivalLane="-E20_0" arrivalPos="196.71" arrivalSpeed="9.86" duration="364.00" routeLength="1817.51" waitingTime="124.80" waitingCount="3" stopTime="32.00" timeLoss="152.83" rerouteNo="1" devices="tripinfo_bus_48.4 routing_bus_48.4" vType="DEFAULT_VEHTYPE" speedFactor="1.00" vaporized=""/>
    <tripinfo id="bus_m3.7" depart="1009.40" departLane="28053297#0_2" departPos="12.10" departSpeed="0.00" departDelay="0.00" arrival="1325.20" arrivalLane="1241633682_1" arrivalPos="85.12" arrivalSpeed="22.19" duration="315.80" routeLength="2832.21" waitingTime="46.40" waitingCount="2" stopTime="24.00" timeLoss="84.07" rerouteNo="1" devices="tripinfo_bus_m3.7 routing_bus_m3.7" vType="DEFAULT_VEHTYPE" speedFactor="1.00" vaporized=""/>
    <tripinfo id="bus_48.5" depart="1068.60" departLane="-E2_1" departPos="0.00" departSpeed="0.00" departDelay="0.00" arrival="1333.40" arrivalLane="-E20_0" arrivalPos="196.71" arrivalSpeed="9.57" duration="264.80" routeLength="1817.51" waitingTime="60.40" waitingCount="1" stopTime="32.00" timeLoss="76.43" rerouteNo="1" devices="tripinfo_bus_48.5 routing_bus_48.5" vType="DEFAULT_VEHTYPE" speedFactor="1.00" vaporized=""/>
    <tripinfo id="bus_48.6" depart="1108.80" departLane="-E2_1" departPos="0.00" departSpeed="0.00" departDelay="0.00" arrival="1348.40" arrivalLane="-E20_0" arrivalPos="196.71" arrivalSpeed="9.82" duration="239.60" routeLength="1817.51" waitingTime="25.00" waitingCount="2" stopTime="32.00" timeLoss="50.62" rerouteNo="1" devices="tripinfo_bus_48.6 routing_bus_48.6" vType="DEFAULT_VEHTYPE" speedFactor="1.00" vaporized=""/>
    <tripinfo id="bus_800.1" depart="1158.20" departLane="-E2_2" departPos="0.00" departSpeed="0.00" departDelay="0.00" arrival="1428.20" arrivalLane="430045512#0_0" arrivalPos="367.54" arrivalSpeed="5.80" duration="270.00" routeLength="1978.11" waitingTime="7.40" waitingCount="1" stopTime="48.00" timeLoss="31.72" rerouteNo="1" devices="tripinfo_bus_800.1 routing_bus_800.1" vType="DEFAULT_VEHTYPE" speedFactor="1.00" vaporized=""/>
    <tripinfo id="bus_800_1.6" depart="1385.00" departLane="430045516_0" departPos="12.10" departSpeed="0.00" departDelay="0.00" arrival="1495.40" arrivalLane="-E20_0" arrivalPos="196.71" arrivalSpeed="13.82" duration="110.40" routeLength="1496.35" waitingTime="0.00" waitingCount="0" stopTime="0.00" timeLoss="20.19" rerouteNo="1" devices="tripinfo_bus_800_1.6 routing_bus_800_1.6" vType="DEFAULT_VEHTYPE" speedFactor="1.00" vaporized=""/>
    <tripinfo id="bus_294.3" depart="1273.20" departLane="30735492.83_0" departPos="0.00" departSpeed="0.00" departDelay="0.00" arrival="1512.80" arrivalLane="-E20_0" arrivalPos="196.71" arrivalSpeed="9.82" duration="239.60" routeLength="1684.55" waitingTime="60.20" waitingCount="1" stopTime="24.00" timeLoss="78.95" rerouteNo="1" devices="tripinfo_bus_294.3 routing_bus_294.3" vType="DEFAULT_VEHTYPE" speedFactor="1.00" vaporized=""/>
    <tripinfo id="bus_322.1" depart="1390.80" departLane="-E2_0" departPos="0.00" departSpeed="0.00" departDelay="0.00" arrival="1575.80" arrivalLane="-1272473366_0" arrivalPos="80.43" arrivalSpeed="16.66" duration="185.00" routeLength="1396.17" waitingTime="10.20" waitingCount="2" stopTime="24.00" timeLoss="37.82" rerouteNo="1" devices="tripinfo_bus_322.1 routing_bus_322.1" vType="DEFAULT_VEHTYPE" speedFactor="1.00" vaporized=""/>
    <tripinfo id="bus_339.4" depart="1367.40" departLane="154204353.882_2" departPos="12.10" departSpeed="0.00" departDelay="0.00" arrival="1580.20" arrivalLane="-E20_0" arrivalPos="196.71" arrivalSpeed="9.86" duration="212.80" routeLength="471.97" waitingTime="13.60" waitingCount="2" stopTime="120.00" timeLoss="22.30" rerouteNo="1" devices="tripinfo_bus_339.4 routing_bus_339.4" vType="DEFAULT_VEHTYPE" speedFactor="1.00" vaporized=""/>
    <tripinfo id="bus_391_1.9" depart="1452.20" departLane="430045516_0" departPos="12.10" departSpeed="0.00" departDelay="0.00" arrival="1588.60" arrivalLane="-E20_1" arrivalPos="196.71" arrivalSpeed="13.85" duration="136.40" routeLength="1496.35" waitingTime="22.60" waitingCount="1" stopTime="0.00" timeLoss="46.11" rerouteNo="1" devices="tripinfo_bus_391_1.9 routing_bus_391_1.9" vType="DEFAULT_VEHTYPE" speedFactor="1.00" vaporized=""/>
    <tripinfo id="bus_155.4" depart="1332.00" departLane="-E2_0" departPos="0.00" departSpeed="0.00" departDelay="0.00" arrival="1605.40" arrivalLane="430045512#0_0" arrivalPos="367.54" arrivalSpeed="5.84" duration="273.40" routeLength="1558.43" waitingTime="75.60" waitingCount="3" stopTime="32.00" timeLoss="88.21" rerouteNo="1" devices="tripinfo_bus_155.4 routing_bus_155.4" vType="DEFAULT_VEHTYPE" speedFactor="1.00" vaporized=""/>