<?xml version="1.0" encoding="UTF-8"?>

<!-- generated on 2026-05-27T19:52:48.554213+03:00 by Eclipse SUMO GUI v1_26_0+1000-c71e510aa5d
<sumoConfiguration xmlns:xsi="http://www.w3.org/2001/XMLSchema-instance" xsi:noNamespaceSchemaLocation="http://sumo.dlr.de/xsd/sumoConfiguration.xsd">

    <input>
        <net-file value="/mnt/extra/git_projects/Sumo_repo/2026-05-03-12-56-33/osm.net.xml.gz"/>
        <route-files value="/mnt/extra/git_projects/Sumo_repo/2026-05-03-12-56-33/osm.passenger.trips.xml"/>
        <additional-files value="/mnt/extra/git_projects/Sumo_repo/2026-05-03-12-56-33/osm.poly.xml.gz,/mnt/extra/git_projects/Sumo_repo/2026-05-03-12-56-33/osm_stops.add.xml,/mnt/extra/git_projects/Sumo_repo/2026-05-03-12-56-33/output.add.xml,/mnt/extra/git_projects/Sumo_repo/2026-05-03-12-56-33/osm.dat.add.xml"/>
    </input>

    <output>
        <tripinfo-output value="/mnt/extra/git_projects/Sumo_repo/2026-05-03-12-56-33/tripinfos.xml"/>
        <stop-output value="/mnt/extra/git_projects/Sumo_repo/2026-05-03-12-56-33/stopinfos.xml"/>
        <statistic-output value="/mnt/extra/git_projects/Sumo_repo/2026-05-03-12-56-33/stats.xml"/>
    </output>

    <time>
        <step-length value="0.2"/>
    </time>

    <processing>
        <ignore-route-errors value="true"/>
        <tls.actuated.jam-threshold value="30"/>
    </processing>

    <routing>
        <device.rerouting.adaptation-steps value="18"/>
        <device.rerouting.adaptation-interval value="10"/>
    </routing>

    <report>
        <verbose value="true"/>
        <duration-log.statistics value="true"/>
        <no-step-log value="true"/>
    </report>

    <gui_only>
        <gui-settings-file value="/mnt/extra/git_projects/Sumo_repo/2026-05-03-12-56-33/osm.view.xml"/>
        <delay value="100"/>
    </gui_only>

</sumoConfiguration>
-->

<tripinfos xmlns:xsi="http://www.w3.org/2001/XMLSchema-instance" xsi:noNamespaceSchemaLocation="http://sumo.dlr.de/xsd/tripinfo_file.xsd">
    <tripinfo id="bus_m3.0" depart="2.60" departLane="28053297#0_0" departPos="12.10" departSpeed="0.00" departDelay="0.00" arrival="126.40" arrivalLane="1241633682_1" arrivalPos="85.12" arrivalSpeed="22.14" duration="123.80" routeLength="1006.03" waitingTime="0.00" waitingCount="0" stopTime="24.00" timeLoss="9.05" rerouteNo="1" devices="tripinfo_bus_m3.0 routing_bus_m3.0" vType="DEFAULT_VEHTYPE" speedFactor="1.00" vaporized=""/>
    <tripinfo id="bus_391_1.0" depart="49.80" departLane="430045516_0" departPos="12.10" departSpeed="0.00" departDelay="0.00" arrival="151.60" arrivalLane="-E20_1" arrivalPos="196.71" arrivalSpeed="13.82" duration="101.80" routeLength="1496.35" waitingTime="0.00" waitingCount="0" stopTime="0.00" timeLoss="11.50" rerouteNo="1" devices="tripinfo_bus_391_1.0 routing_bus_391_1.0" vType="DEFAULT_VEHTYPE" speedFactor="1.00" vaporized=""/>
    <tripinfo id="bus_m3.1" depart="33.40" departLane="28053297#0_0" departPos="12.10" departSpeed="0.00" departDelay="0.00" arrival="155.80" arrivalLane="1241633682_1" arrivalPos="85.12" arrivalSpeed="22.22" duration="122.40" routeLength="1006.03" waitingTime="0.00" waitingCount="0" stopTime="24.00" timeLoss="7.56" rerouteNo="1" devices="tripinfo_bus_m3.1 routing_bus_m3.1" vType="DEFAULT_VEHTYPE" speedFactor="1.00" vaporized=""/>
    <tripinfo id="bus_322.0" depart="19.40" departLane="-E2_0" departPos="5.46" departSpeed="0.00" departDelay="0.00" arrival="224.00" arrivalLane="-1272473366_0" arrivalPos="80.43" arrivalSpeed="13.26" duration="204.60" routeLength="1390.55" waitingTime="33.80" waitingCount="2" stopTime="24.00" timeLoss="65.34" rerouteNo="1" devices="tripinfo_bus_322.0 routing_bus_322.0" vType="DEFAULT_VEHTYPE" speedFactor="1.00" vaporized=""/>
    <tripinfo id="bus_800_1.0" depart="135.20" departLane="430045516_0" departPos="12.10" departSpeed="0.00" departDelay="0.00" arrival="239.20" arrivalLane="-E20_1" arrivalPos="196.71" arrivalSpeed="13.84" duration="104.00" routeLength="1496.35" waitingTime="0.00" waitingCount="0" stopTime="0.00" timeLoss="13.73" rerouteNo="1" devices="tripinfo_bus_800_1.0 routing_bus_800_1.0" vType="DEFAULT_VEHTYPE" speedFactor="1.00" vaporized=""/>
    <tripinfo id="bus_391_1.1" depart="140.80" departLane="430045516_0" departPos="12.10" departSpeed="0.00" departDelay="1.80" arrival="242.40" arrivalLane="-E20_1" arrivalPos="196.71" arrivalSpeed="13.82" duration="101.60" routeLength="1496.35" waitingTime="0.00" waitingCount="0" stopTime="0.00" timeLoss="11.24" rerouteNo="1" devices="tripinfo_bus_391_1.1 routing_bus_391_1.1" vType="DEFAULT_VEHTYPE" speedFactor="1.00" vaporized=""/>
    <tripinfo id="bus_339.0" depart="88.00" departLane="154204353.882_0" departPos="12.10" departSpeed="0.00" departDelay="0.00" arrival="304.80" arrivalLane="-E20_0" arrivalPos="196.71" arrivalSpeed="9.77" duration="216.80" routeLength="471.97" waitingTime="29.20" waitingCount="1" stopTime="120.00" timeLoss="36.35" rerouteNo="1" devices="tripinfo_bus_339.0 routing_bus_339.0" vType="DEFAULT_VEHTYPE" speedFactor="1.00" vaporized=""/>
    <tripinfo id="bus_m3.2" depart="190.00" departLane="28053297#0_0" departPos="12.10" departSpeed="0.00" departDelay="0.00" arrival="313.80" arrivalLane="1241633682_1" arrivalPos="85.12" arrivalSpeed="22.19" duration="123.80" routeLength="1006.03" waitingTime="0.00" waitingCount="0" stopTime="24.00" timeLoss="8.88" rerouteNo="1" devices="tripinfo_bus_m3.2 routing_bus_m3.2" vType="DEFAULT_VEHTYPE" speedFactor="1.00" vaporized=""/>
    <tripinfo id="bus_800_1.1" depart="201.40" departLane="430045516_0" departPos="12.10" departSpeed="0.00" departDelay="0.00" arrival="332.20" arrivalLane="-E20_1" arrivalPos="196.71" arrivalSpeed="13.87" duration="130.80" routeLength="1496.35" waitingTime="13.40" waitingCount="1" stopTime="0.00" timeLoss="40.43" rerouteNo="1" devices="tripinfo_bus_800_1.1 routing_bus_800_1.1" vType="DEFAULT_VEHTYPE" speedFactor="1.00" vaporized=""/>
    <tripinfo id="bus_339.1" depart="119.20" departLane="154204353.882_0" departPos="12.10" departSpeed="0.00" departDelay="0.00" arrival="394.20" arrivalLane="-E20_0" arrivalPos="196.71" arrivalSpeed="9.83" duration="275.00" routeLength="471.97" waitingTime="79.40" waitingCount="2" stopTime="120.00" timeLoss="86.79" rerouteNo="1" devices="tripinfo_bus_339.1 routing_bus_339.1" vType="DEFAULT_VEHTYPE" speedFactor="1.00" vaporized=""/>
    <tripinfo id="bus_322.1" depart="179.20" departLane="-E2_0" departPos="5.46" departSpeed="0.00" departDelay="0.00" arrival="404.40" arrivalLane="-1272473366_0" arrivalPos="80.43" arrivalSpeed="13.07" duration="225.20" routeLength="1390.55" waitingTime="54.40" waitingCount="2" stopTime="24.00" timeLoss="85.90" rerouteNo="1" devices="tripinfo_bus_322.1 routing_bus_322.1" vType="DEFAULT_VEHTYPE" speedFactor="1.00" vaporized=""/>
    <tripinfo id="bus_294.0" depart="147.00" departLane="30735492.83_0" departPos="0.00" departSpeed="0.00" departDelay="0.00" arrival="409.60" arrivalLane="-E20_0" arrivalPos="196.71" arrivalSpeed="9.43" duration="262.60" routeLength="1684.55" waitingTime="72.00" waitingCount="2" stopTime="24.00" timeLoss="93.50" rerouteNo="1" devices="tripinfo_bus_294.0 routing_bus_294.0" vType="DEFAULT_VEHTYPE" speedFactor="1.00" vaporized=""/>
    <tripinfo id="bus_391_1.2" depart="247.40" departLane="430045516_0" departPos="12.10" departSpeed="0.00" departDelay="0.00" arrival="418.60" arrivalLane="-E20_1" arrivalPos="196.71" arrivalSpeed="13.80" duration="171.20" routeLength="1496.35" waitingTime="57.40" waitingCount="1" stopTime="0.00" timeLoss="80.95" rerouteNo="1" devices="tripinfo_bus_391_1.2 routing_bus_391_1.2" vType="DEFAULT_VEHTYPE" speedFactor="1.00" vaporized=""/>
    <tripinfo id="bus_391_1.3" depart="274.40" departLane="430045516_0" departPos="12.10" departSpeed="0.00" departDelay="0.00" arrival="421.80" arrivalLane="-E20_1" arrivalPos="196.71" arrivalSpeed="13.83" duration="147.40" routeLength="1496.35" waitingTime="30.80" waitingCount="1" stopTime="0.00" timeLoss="57.11" rerouteNo="1" devices="tripinfo_bus_391_1.3 routing_bus_391_1.3" vType="DEFAULT_VEHTYPE" speedFactor="1.00" vaporized=""/>
    <tripinfo id="bus_800_1.2" depart="279.80" departLane="430045516_0" departPos="12.10" departSpeed="0.00" departDelay="2.60" arrival="423.40" arrivalLane="-E20_2" arrivalPos="196.71" arrivalSpeed="13.80" duration="143.60" routeLength="1496.35" waitingTime="23.00" waitingCount="1" stopTime="0.00" timeLoss="53.41" rerouteNo="1" devices="tripinfo_bus_800_1.2 routing_bus_800_1.2" vType="DEFAULT_VEHTYPE" speedFactor="1.00" vaporized=""/>
    <tripinfo id="bus_391_1.4" depart="294.20" departLane="430045516_0" departPos="12.10" departSpeed="0.00" departDelay="0.00" arrival="425.40" arrivalLane="-E20_1" arrivalPos="196.71" arrivalSpeed="13.84" duration="131.20" routeLength="1496.35" waitingTime="9.80" waitingCount="1" stopTime="0.00" timeLoss="40.85" rerouteNo="1" devices="tripinfo_bus_391_1.4 routing_bus_391_1.4" vType="DEFAULT_VEHTYPE" speedFactor="1.00" vaporized=""/>
    <tripinfo id="bus_155.0" depart="165.00" departLane="-E2_0" departPos="5.83" departSpeed="0.00" departDelay="0.00" arrival="437.60" arrivalLane="430045512#0_0" arrivalPos="367.54" arrivalSpeed="5.76" duration="272.60" routeLength="1552.78" waitingTime="66.00" waitingCount="1" stopTime="40.00" timeLoss="78.83" rerouteNo="1" devices="tripinfo_bus_155.0 routing_bus_155.0" vType="DEFAULT_VEHTYPE" speedFactor="1.00" vaporized=""/>
    <tripinfo id="bus_339.2" depart="255.60" departLane="154204353.882_0" departPos="12.10" departSpeed="0.00" departDelay="0.00" arrival="484.80" arrivalLane="-E20_0" arrivalPos="196.71" arrivalSpeed="9.91" duration="229.20" routeLength="471.97" waitingTime="41.40" waitingCount="2" stopTime="120.00" timeLoss="48.74" rerouteNo="1" devices="tripinfo_bus_339.2 routing_bus_339.2" vType="DEFAULT_VEHTYPE" speedFactor="1.00" vaporized=""/>
    <tripinfo id="bus_294.1" depart="204.60" departLane="30735492.83_0" departPos="0.00" departSpeed="0.00" departDelay="0.00" arrival="499.80" arrivalLane="-E20_0" arrivalPos="196.71" arrivalSpeed="9.52" duration="295.20" routeLength="1684.55" waitingTime="100.40" waitingCount="2" stopTime="24.00" timeLoss="125.03" rerouteNo="1" devices="tripinfo_bus_294.1 routing_bus_294.1" vType="DEFAULT_VEHTYPE" speedFactor="1.00" vaporized=""/>
    <tripinfo id="bus_48.0" depart="278.60" departLane="-E2_0" departPos="4.99" departSpeed="0.00" departDelay="0.00" arrival="523.60" arrivalLane="-E20_0" arrivalPos="196.71" arrivalSpeed="9.61" duration="245.00" routeLength="1812.36" waitingTime="41.60" waitingCount="1" stopTime="32.00" timeLoss="64.63" rerouteNo="1" devices="tripinfo_bus_48.0 routing_bus_48.0" vType="DEFAULT_VEHTYPE" speedFactor="1.00" vaporized=""/>
    <tripinfo id="bus_155.1" depart="328.00" departLane="-E2_0" departPos="5.83" departSpeed="0.00" departDelay="0.00" arrival="524.80" arrivalLane="430045512#0_0" arrivalPos="367.54" arrivalSpeed="5.83" duration="196.80" routeLength="1552.78" waitingTime="0.20" waitingCount="1" stopTime="40.00" timeLoss="13.82" rerouteNo="1" devices="tripinfo_bus_155.1 routing_bus_155.1" vType="DEFAULT_VEHTYPE" speedFactor="1.00" vaporized=""/>
    <tripinfo id="bus_339.3" depart="404.20" departLane="154204353.882_0" departPos="12.10" departSpeed="0.00" departDelay="0.00" arrival="590.60" arrivalLane="-E20_0" arrivalPos="196.71" arrivalSpeed="9.91" duration="186.40" routeLength="471.97" waitingTime="0.00" waitingCount="0" stopTime="120.00" timeLoss="4.94" rerouteNo="1" devices="tripinfo_bus_339.3 routing_bus_339.3" vType="DEFAULT_VEHTYPE" speedFactor="1.00" vaporized=""/>
    <tripinfo id="bus_391_1.5" depart="503.00" departLane="430045516_0" departPos="12.10" departSpeed="0.00" departDelay="0.00" arrival="605.20" arrivalLane="-E20_1" arrivalPos="196.71" arrivalSpeed="13.80" duration="102.20" routeLength="1496.35" waitingTime="0.00" waitingCount="0" stopTime="0.00" timeLoss="11.88" rerouteNo="1" devices="tripinfo_bus_391_1.5 routing_bus_391_1.5" vType="DEFAULT_VEHTYPE" speedFactor="1.00" vaporized=""/>
    <tripinfo id="bus_155.2" depart="341.60" departLane="-E2_0" departPos="5.83" departSpeed="0.00" departDelay="0.00" arrival="633.20" arrivalLane="430045512#0_0" arrivalPos="367.54" arrivalSpeed="5.65" duration="291.60" routeLength="1552.78" waitingTime="74.80" waitingCount="2" stopTime="40.00" timeLoss="89.65" rerouteNo="1" devices="tripinfo_bus_155.2 routing_bus_155.2" vType="DEFAULT_VEHTYPE" speedFactor="1.00" vaporized=""/>
    <tripinfo id="bus_339.4" depart="468.20" departLane="154204353.882_0" departPos="12.10" departSpeed="0.00" departDelay="0.00" arrival="665.00" arrivalLane="-E20_0" arrivalPos="196.71" arrivalSpeed="9.93" duration="196.80" routeLength="471.97" waitingTime="8.20" waitingCount="1" stopTime="120.00" timeLoss="15.46" rerouteNo="1" devices="tripinfo_bus_339.4 routing_bus_339.4" vType="DEFAULT_VEHTYPE" speedFactor="1.00" vaporized=""/>
    <tripinfo id="bus_48.1" depart="347.00" departLane="-E2_0" departPos="4.99" departSpeed="0.00" departDelay="2.60" arrival="680.00" arrivalLane="-E20_0" arrivalPos="196.71" arrivalSpeed="9.63" duration="333.00" routeLength="1812.36" waitingTime="112.60" waitingCount="4" stopTime="32.00" timeLoss="138.29" rerouteNo="1" devices="tripinfo_bus_48.1 routing_bus_48.1" vType="DEFAULT_VEHTYPE" speedFactor="1.00" vaporized=""/>
    <tripinfo id="bus_391_1.6" depart="548.20" departLane="430045516_0" departPos="12.10" departSpeed="0.00" departDelay="0.00" arrival="686.40" arrivalLane="-E20_0" arrivalPos="196.71" arrivalSpeed="13.79" duration="138.20" routeLength="1496.35" waitingTime="26.60" waitingCount="1" stopTime="0.00" timeLoss="47.95" rerouteNo="1" devices="tripinfo_bus_391_1.6 routing_bus_391_1.6" vType="DEFAULT_VEHTYPE" speedFactor="1.00" vaporized=""/>
    <tripinfo id="bus_391.0" depart="440.20" departLane="-E2_0" departPos="5.19" departSpeed="0.00" departDelay="0.00" arrival="692.40" arrivalLane="1241633682_1" arrivalPos="85.12" arrivalSpeed="22.19" duration="252.20" routeLength="1586.16" waitingTime="52.20" waitingCount="2" stopTime="32.00" timeLoss="76.23" rerouteNo="1" devices="tripinfo_bus_391.0 routing_bus_391.0" vType="DEFAULT_VEHTYPE" speedFactor="1.00" vaporized=""/>
    <tripinfo id="bus_800.0" depart="420.40" departLane="-E2_0" departPos="4.85" departSpeed="0.00" departDelay="0.00" arrival="699.80" arrivalLane="430045512#0_0" arrivalPos="367.54" arrivalSpeed="5.62" duration="279.40" routeLength="2095.40" waitingTime="3.20" waitingCount="2" stopTime="48.00" timeLoss="32.10" rerouteNo="1" devices="tripinfo_bus_800.0 routing_bus_800.0" vType="DEFAULT_VEHTYPE" speedFactor="1.00" vaporized=""/>
    <tripinfo id="bus_294.2" depart="496.60" departLane="30735492.83_0" departPos="0.00" departSpeed="0.00" departDelay="0.00" arrival="703.40" arrivalLane="-E20_0" arrivalPos="196.71" arrivalSpeed="9.55" duration="206.80" routeLength="1684.55" waitingTime="26.20" waitingCount="1" stopTime="24.00" timeLoss="45.87" rerouteNo="1" devices="tripinfo_bus_294.2 routing_bus_294.2" vType="DEFAULT_VEHTYPE" speedFactor="1.00" vaporized=""/>
    <tripinfo id="bus_391.1" depart="464.20" departLane="-E2_0" departPos="5.19" departSpeed="0.00" departDelay="0.00" arrival="708.80" arrivalLane="1241633682_1" arrivalPos="85.12" arrivalSpeed="21.92" duration="244.60" routeLength="1586.16" waitingTime="37.20" waitingCount="2" stopTime="32.00" timeLoss="66.13" rerouteNo="1" devices="tripinfo_bus_391.1 routing_bus_391.1" vType="DEFAULT_VEHTYPE" speedFactor="1.00" vaporized=""/>
    <tripinfo id="bus_155.3" depart="426.00" departLane="-E2_0" departPos="5.83" departSpeed="0.00" departDelay="4.00" arrival="715.20" arrivalLane="430045512#0_0" arrivalPos="367.54" arrivalSpeed="6.00" duration="289.20" routeLength="1552.78" waitingTime="67.00" waitingCount="2" stopTime="40.00" timeLoss="84.01" rerouteNo="1" devices="tripinfo_bus_155.3 routing_bus_155.3" vType="DEFAULT_VEHTYPE" speedFactor="1.00" vaporized=""/>
    <tripinfo id="bus_391.2" depart="515.00" departLane="-E2_0" departPos="5.19" departSpeed="0.00" departDelay="0.00" arrival="724.40" arrivalLane="1241633682_1" arrivalPos="85.12" arrivalSpeed="22.15" duration="209.40" routeLength="1586.16" waitingTime="5.20" waitingCount="1" stopTime="32.00" timeLoss="23.50" rerouteNo="1" devices="tripinfo_bus_391.2 routing_bus_391.2" vType="DEFAULT_VEHTYPE" speedFactor="1.00" vaporized=""/>
    <tripinfo id="bus_322.2" depart="648.00" departLane="-E2_0" departPos="5.46" departSpeed="0.00" departDelay="0.00" arrival="854.20" arrivalLane="-1272473366_0" arrivalPos="80.43" arrivalSpeed="13.06" duration="206.20" routeLength="1390.55" waitingTime="35.60" waitingCount="2" stopTime="24.00" timeLoss="66.52" rerouteNo="1" devices="tripinfo_bus_322.2 routing_bus_322.2" vType="DEFAULT_VEHTYPE" speedFactor="1.00" vaporized=""/>
    <tripinfo id="bus_322.3" depart="653.60" departLane="-E2_0" departPos="5.46" departSpeed="0.00" departDelay="5.60" arrival="856.40" arrivalLane="-1272473366_0" arrivalPos="80.43" arrivalSpeed="16.24" duration="202.80" routeLength="1390.55" waitingTime="20.80" waitingCount="3" stopTime="24.00" timeLoss="50.27" rerouteNo="1" devices="tripinfo_bus_322.3 routing_bus_322.3" vType="DEFAULT_VEHTYPE" speedFactor="1.00" vaporized=""/>
    <tripinfo id="bus_800_1.3" depart="747.40" departLane="430045516_0" departPos="12.10" departSpeed="0.00" departDelay="0.00" arrival="866.60" arrivalLane="-E20_1" arrivalPos="196.71" arrivalSpeed="13.84" duration="119.20" routeLength="1496.35" waitingTime="7.40" waitingCount="1" stopTime="0.00" timeLoss="28.94" rerouteNo="1" devices="tripinfo_bus_800_1.3 routing_bus_800_1.3" vType="DEFAULT_VEHTYPE" speedFactor="1.00" vaporized=""/>
    <tripinfo id="bus_800_1.4" depart="752.80" departLane="430045516_0" departPos="12.10" departSpeed="0.00" departDelay="5.40" arrival="868.80" arrivalLane="-E20_1" arrivalPos="196.71" arrivalSpeed="13.89" duration="116.00" routeLength="1496.35" waitingTime="0.00" waitingCount="0" stopTime="0.00" timeLoss="25.66" rerouteNo="1" devices="tripinfo_bus_800_1.4 routing_bus_800_1.4" vType="DEFAULT_VEHTYPE" speedFactor="1.00" vaporized=""/>
    <tripinfo id="bus_800_1.5" depart="758.40" departLane="430045516_0" departPos="12.10" departSpeed="0.00" departDelay="11.00" arrival="870.80" arrivalLane="-E20_1" arrivalPos="196.71" arrivalSpeed="13.88" duration="112.40" routeLength="1496.35" waitingTime="0.00" waitingCount="0" stopTime="0.00" timeLoss="22.10" rerouteNo="1" devices="tripinfo_bus_800_1.5 routing_bus_800_1.5" vType="DEFAULT_VEHTYPE" speedFactor="1.00" vaporized=""/>
    <tripinfo id="bus_800_1.6" depart="764.00" departLane="430045516_0" departPos="12.10" departSpeed="0.00" departDelay="16.60" arrival="872.80" arrivalLane="-E20_1" arrivalPos="196.71" arrivalSpeed="13.88" duration="108.80" routeLength="1496.35" waitingTime="0.00" waitingCount="0" stopTime="0.00" timeLoss="18.55" rerouteNo="1" devices="tripinfo_bus_800_1.6 routing_bus_800_1.6" vType="DEFAULT_VEHTYPE" speedFactor="1.00" vaporized=""/>
    <tripinfo id="bus_800_1.7" depart="769.40" departLane="430045516_0" departPos="12.10" departSpeed="0.00" departDelay="22.00" arrival="875.20" arrivalLane="-E20_1" arrivalPos="196.71" arrivalSpeed="13.79" duration="105.80" routeLength="1496.35" waitingTime="0.00" waitingCount="0" stopTime="0.00" timeLoss="15.44" rerouteNo="1" devices="tripinfo_bus_800_1.7 routing_bus_800_1.7" vType="DEFAULT_VEHTYPE" speedFactor="1.00" vaporized=""/>
    <tripinfo id="bus_294.3" depart="674.60" departLane="30735492.83_0" departPos="0.00" departSpeed="0.00" departDelay="0.00" arrival="882.60" arrivalLane="-E20_0" arrivalPos="196.71" arrivalSpeed="9.88" duration="208.00" routeLength="1684.55" waitingTime="28.40" waitingCount="1" stopTime="24.00" timeLoss="47.49" rerouteNo="1" devices="tripinfo_bus_294.3 routing_bus_294.3" vType="DEFAULT_VEHTYPE" speedFactor="1.00" vaporized=""/>
    <tripinfo id="bus_322.4" depart="659.00" departLane="-E2_0" departPos="5.46" departSpeed="0.00" departDelay="11.00" arrival="885.20" arrivalLane="-1272473366_0" arrivalPos="80.43" arrivalSpeed="12.94" duration="226.20" routeLength="1390.55" waitingTime="19.40" waitingCount="5" stopTime="24.00" timeLoss="60.27" rerouteNo="1" devices="tripinfo_bus_322.4 routing_bus_322.4" vType="DEFAULT_VEHTYPE" speedFactor="1.00" vaporized=""/>
    <tripinfo id="bus_322.5" depart="664.40" departLane="-E2_0" departPos="5.46" departSpeed="0.00" departDelay="16.40" arrival="887.20" arrivalLane="-1272473366_0" arrivalPos="80.43" arrivalSpeed="14.81" duration="222.80" routeLength="1390.55" waitingTime="17.40" waitingCount="4" stopTime="24.00" timeLoss="45.75" rerouteNo="1" devices="tripinfo_bus_322.5 routing_bus_322.5" vType="DEFAULT_VEHTYPE" speedFactor="1.00" vaporized=""/>
    <tripinfo id="bus_294.4" depart="680.20" departLane="30735492.83_0" departPos="0.00" departSpeed="0.00" departDelay="5.60" arrival="897.40" arrivalLane="-E20_0" arrivalPos="196.71" arrivalSpeed="10.08" duration="217.20" routeLength="1684.55" waitingTime="15.20" waitingCount="2" stopTime="24.00" timeLoss="41.38" rerouteNo="1" devices="tripinfo_bus_294.4 routing_bus_294.4" vType="DEFAULT_VEHTYPE" speedFactor="1.00" vaporized=""/>
    <tripinfo id="bus_294.5" depart="685.80" departLane="30735492.83_0" departPos="0.00" departSpeed="0.00" departDelay="11.20" arrival="912.60" arrivalLane="-E20_0" arrivalPos="196.71" arrivalSpeed="9.78" duration="226.80" routeLength="1684.55" waitingTime="12.60" waitingCount="3" stopTime="24.00" timeLoss="37.01" rerouteNo="1" devices="tripinfo_bus_294.5 routing_bus_294.5" vType="DEFAULT_VEHTYPE" speedFactor="1.00" vaporized=""/>
    <tripinfo id="bus_322.6" depart="669.80" departLane="-E2_0" departPos="5.46" departSpeed="0.00" departDelay="21.80" arrival="915.20" arrivalLane="-1272473366_0" arrivalPos="80.43" arrivalSpeed="13.32" duration="245.40" routeLength="1390.55" waitingTime="26.80" waitingCount="7" stopTime="24.00" timeLoss="60.03" rerouteNo="1" devices="tripinfo_bus_322.6 routing_bus_322.6" vType="DEFAULT_VEHTYPE" speedFactor="1.00" vaporized=""/>
    <tripinfo id="bus_294.6" depart="691.40" departLane="30735492.83_0" departPos="0.00" departSpeed="0.00" departDelay="16.80" arrival="927.80" arrivalLane="-E20_0" arrivalPos="196.71" arrivalSpeed="9.71" duration="236.40" routeLength="1684.55" waitingTime="17.80" waitingCount="4" stopTime="24.00" timeLoss="44.53" rerouteNo="1" devices="tripinfo_bus_294.6 routing_bus_294.6" vType="DEFAULT_VEHTYPE" speedFactor="1.00" vaporized=""/>
    <tripinfo id="bus_391_1.7" depart="840.40" departLane="430045516_0" departPos="12.10" departSpeed="0.00" departDelay="0.00" arrival="956.40" arrivalLane="-E20_1" arrivalPos="196.71" arrivalSpeed="13.85" duration="116.00" routeLength="1496.35" waitingTime="4.60" waitingCount="1" stopTime="0.00" timeLoss="25.64" rerouteNo="1" devices="tripinfo_bus_391_1.7 routing_bus_391_1.7" vType="DEFAULT_VEHTYPE" speedFactor="1.00" vaporized=""/>
    <tripinfo id="bus_391_1.8" depart="845.80" departLane="430045516_0" departPos="12.10" departSpeed="0.00" departDelay="5.40" arrival="958.40" arrivalLane="-E20_1" arrivalPos="196.71" arrivalSpeed="13.84" duration="112.60" routeLength="1496.35" waitingTime="0.00" waitingCount="0" stopTime="0.00" timeLoss="22.27" rerouteNo="1" devices="tripinfo_bus_391_1.8 routing_bus_391_1.8" vType="DEFAULT_VEHTYPE" speedFactor="1.00" vaporized=""/>
    <tripinfo id="bus_391_1.9" depart="851.40" departLane="430045516_0" departPos="12.10" departSpeed="0.00" departDelay="11.00" arrival="960.40" arrivalLane="-E20_1" arrivalPos="196.71" arrivalSpeed="13.83" duration="109.00" routeLength="1496.35" waitingTime="0.00" waitingCount="0" stopTime="0.00" timeLoss="18.74" rerouteNo="1" devices="tripinfo_bus_391_1.9 routing_bus_391_1.9" vType="DEFAULT_VEHTYPE" speedFactor="1.00" vaporized=""/>
    <tripinfo id="bus_391_1.10" depart="857.00" departLane="430045516_0" departPos="12.10" departSpeed="0.00" departDelay="16.60" arrival="962.40" arrivalLane="-E20_1" arrivalPos="196.71" arrivalSpeed="13.88" duration="105.40" routeLength="1496.35" waitingTime="0.00" waitingCount="0" stopTime="0.00" timeLoss="15.15" rerouteNo="1" devices="tripinfo_bus_391_1.10 routing_bus_391_1.10" vType="DEFAULT_VEHTYPE" speedFactor="1.00" vaporized=""/>
    <tripinfo id="bus_391_1.11" depart="862.60" departLane="430045516_0" departPos="12.10" departSpeed="0.00" departDelay="22.20" arrival="965.00" arrivalLane="-E20_1" arrivalPos="196.71" arrivalSpeed="13.79" duration="102.40" routeLength="1496.35" waitingTime="0.00" waitingCount="0" stopTime="0.00" timeLoss="12.02" rerouteNo="1" devices="tripinfo_bus_391_1.11 routing_bus_391_1.11" vType="DEFAULT_VEHTYPE" speedFactor="1.00" vaporized=""/>
    <tripinfo id="bus_294.7" depart="697.00" departLane="30735492.83_0" departPos="0.00" departSpeed="0.00" departDelay="22.40" arrival="972.80" arrivalLane="-E20_0" arrivalPos="196.71" arrivalSpeed="9.59" duration="275.80" routeLength="1684.55" waitingTime="68.40" waitingCount="4" stopTime="24.00" timeLoss="92.72" rerouteNo="1" devices="tripinfo_bus_294.7 routing_bus_294.7" vType="DEFAULT_VEHTYPE" speedFactor="1.00" vaporized=""/>
    <tripinfo id="bus_294.8" depart="780.80" departLane="30735492.83_0" departPos="0.00" departSpeed="0.00" departDelay="0.00" arrival="987.80" arrivalLane="-E20_0" arrivalPos="196.71" arrivalSpeed="9.80" duration="207.00" routeLength="1684.55" waitingTime="14.40" waitingCount="2" stopTime="24.00" timeLoss="37.74" rerouteNo="1" devices="tripinfo_bus_294.8 routing_bus_294.8" vType="DEFAULT_VEHTYPE" speedFactor="1.00" vaporized=""/>
    <tripinfo id="bus_294.9" depart="786.40" departLane="30735492.83_0" departPos="0.00" departSpeed="0.00" departDelay="5.60" arrival="1002.80" arrivalLane="-E20_0" arrivalPos="196.71" arrivalSpeed="9.55" duration="216.40" routeLength="1684.55" waitingTime="8.40" waitingCount="3" stopTime="24.00" timeLoss="31.96" rerouteNo="1" devices="tripinfo_bus_294.9 routing_bus_294.9" vType="DEFAULT_VEHTYPE" speedFactor="1.00" vaporized=""/>
    <tripinfo id="bus_c339.0" depart="284.80" departLane="-E2_0" departPos="8.67" departSpeed="0.00" departDelay="3.00" arrival="1003.20" arrivalLane="-154204353_0" arrivalPos="178.51" arrivalSpeed="5.12" duration="718.40" routeLength="898.53" waitingTime="577.40" waitingCount="3" stopTime="8.00" timeLoss="611.98" rerouteNo="1" devices="tripinfo_bus_c339.0 routing_bus_c339.0" vType="DEFAULT_VEHTYPE" speedFactor="1.00" vaporized=""/>
    <tripinfo id="bus_48.2" depart="682.60" departLane="-E2_0" departPos="4.99" departSpeed="0.00" departDelay="0.00" arrival="1017.60" arrivalLane="-E20_0" arrivalPos="196.71" arrivalSpeed="9.79" duration="335.00" routeLength="1812.36" waitingTime="71.40" waitingCount="7" stopTime="32.00" timeLoss="106.71" rerouteNo="1" devices="tripinfo_bus_48.2 routing_bus_48.2" vType="DEFAULT_VEHTYPE" speedFactor="1.00" vaporized=""/>
    <tripinfo id="bus_294.10" depart="791.60" departLane="30735492.83_0" departPos="0.00" departSpeed="0.00" departDelay="10.80" arrival="1063.00" arrivalLane="-E20_0" arrivalPos="196.71" arrivalSpeed="9.62" duration="271.40" routeLength="1684.55" waitingTime="78.20" waitingCount="3" stopTime="24.00" timeLoss="90.23" rerouteNo="1" devices="tripinfo_bus_294.10 routing_bus_294.10" vType="DEFAULT_VEHTYPE" speedFactor="1.00" vaporized=""/>
    <tripinfo id="bus_48.3" depart="689.60" departLane="-E2_0" departPos="4.99" departSpeed="0.00" departDelay="7.00" arrival="1077.80" arrivalLane="-E20_0" arrivalPos="196.71" arrivalSpeed="9.77" duration="388.20" routeLength="1812.36" waitingTime="98.00" waitingCount="11" stopTime="32.00" timeLoss="147.99" rerouteNo="1" devices="tripinfo_bus_48.3 routing_bus_48.3" vType="DEFAULT_VEHTYPE" speedFactor="1.00" vaporized=""/>
    <tripinfo id="bus_294.11" depart="797.20" departLane="30735492.83_0" departPos="0.00" departSpeed="0.00" departDelay="16.40" arrival="1092.80" arrivalLane="-E20_0" arrivalPos="196.71" arrivalSpeed="9.65" duration="295.60" routeLength="1684.55" waitingTime="62.20" waitingCount="7" stopTime="24.00" timeLoss="84.58" rerouteNo="1" devices="tripinfo_bus_294.11 routing_bus_294.11" vType="DEFAULT_VEHTYPE" speedFactor="1.00" vaporized=""/>
    <tripinfo id="bus_322.7" depart="817.80" departLane="-E2_0" departPos="5.46" departSpeed="0.00" departDelay="111.00" arrival="1095.40" arrivalLane="-1272473366_0" arrivalPos="80.43" arrivalSpeed="13.02" duration="277.60" routeLength="1390.55" waitingTime="29.60" waitingCount="9" stopTime="24.00" timeLoss="82.48" rerouteNo="1" devices="tripinfo_bus_322.7 routing_bus_322.7" vType="DEFAULT_VEHTYPE" speedFactor="1.00" vaporized=""/>
    <tripinfo id="bus_322.8" depart="832.00" departLane="-E2_0" departPos="5.46" departSpeed="0.00" departDelay="125.20" arrival="1097.60" arrivalLane="-1272473366_0" arrivalPos="80.43" arrivalSpeed="16.01" duration="265.60" routeLength="1390.55" waitingTime="29.80" waitingCount="10" stopTime="24.00" timeLoss="65.39" rerouteNo="1" devices="tripinfo_bus_322.8 routing_bus_322.8" vType="DEFAULT_VEHTYPE" speedFactor="1.00" vaporized=""/>
    <tripinfo id="bus_294.12" depart="802.80" departLane="30735492.83_0" departPos="0.00" departSpeed="0.00" departDelay="22.00" arrival="1107.80" arrivalLane="-E20_0" arrivalPos="196.71" arrivalSpeed="9.75" duration="305.00" routeLength="1684.55" waitingTime="55.80" waitingCount="7" stopTime="24.00" timeLoss="79.69" rerouteNo="1" devices="tripinfo_bus_294.12 routing_bus_294.12" vType="DEFAULT_VEHTYPE" speedFactor="1.00" vaporized=""/>
</tripinfos>
