<?xml version="1.0" encoding="UTF-8"?>

<!-- generated on 2026-05-03T12:57:03.359662+03:00 by Eclipse SUMO sumo v1_26_0+1000-c71e510aa5d
<sumoConfiguration xmlns:xsi="http://www.w3.org/2001/XMLSchema-instance" xsi:noNamespaceSchemaLocation="http://sumo.dlr.de/xsd/sumoConfiguration.xsd">

    <input>
        <net-file value="/home/diaden/2026-05-03-12-56-33/osm.net.xml.gz"/>
        <route-files value="/home/diaden/2026-05-03-12-56-33/trips.trips.xml"/>
        <additional-files value="/home/diaden/2026-05-03-12-56-33/osm_stops.add.xml"/>
    </input>

    <output>
        <vehroute-output value="/home/diaden/2026-05-03-12-56-33/vehroutes.xml"/>
        <stop-output value="/home/diaden/2026-05-03-12-56-33/stopinfos.xml"/>
    </output>

    <time>
        <begin value="0.0"/>
    </time>

    <processing>
        <ignore-route-errors value="true"/>
        <time-to-teleport.disconnected value="0"/>
    </processing>

    <routing>
        <device.rerouting.adaptation-interval value="0"/>
    </routing>

    <report>
        <aggregate-warnings value="5"/>
        <error-log value="/home/diaden/2026-05-03-12-56-33/trips.trips.xml.errorlog"/>
        <no-step-log value="true"/>
    </report>

</sumoConfiguration>
-->

<routes xmlns:xsi="http://www.w3.org/2001/XMLSchema-instance" xsi:noNamespaceSchemaLocation="http://sumo.dlr.de/xsd/routes_file.xsd">
    <vehicle id="3_bus_м3а:0" type="pt_bus" depart="17.00" departLane="0" arrival="142.00">
        <route edges="430045516 264292226 594899548 594899548-AddedOffRampEdge 23396772#0 23396772#1 28053288#1 594899552"/>
        <stop busStop="6242129323" duration="30.00"/>
        <stop busStop="6242129326" duration="30.00"/>
    </vehicle>

    <vehicle id="0_bus_294:0" type="pt_bus" depart="3.00" departLane="0" arrival="291.00">
        <route edges="30735492 131700468#2 131700468#3 131700468#4 131700468#5 264292224 264292226 264292208 88607524 84516980 497960128 157600569#0 157600569#1 1272473364#0 1272473364#1 1272473364#2 295298104#0 295298104#1 23242835 157600515#0 157600515#1"/>
        <stop busStop="2699824215" duration="30.00"/>
        <stop busStop="981969019" duration="30.00"/>
        <stop busStop="4730949154" duration="30.00"/>
    </vehicle>

    <vehicle id="7_bus_48:0" type="pt_bus" depart="93.00" departLane="0" arrival="330.00">
        <route edges="1272473366 157600591#0 432750249#0 432750249#1 432750249#2 432750249#4 1272473359 131700470#0 131700470#1 497960128 157600569#0 157600569#1 1272473364#0 1272473364#1 1272473364#2 295298104#0 295298104#1 23242835 157600515#0 157600515#1"/>
        <stop busStop="12997959838" duration="30.00"/>
        <stop busStop="981969019" duration="30.00"/>
        <stop busStop="4730949154" duration="30.00"/>
    </vehicle>

    <vehicle id="6_bus_т21:1" type="pt_bus" depart="58.00" departLane="0" arrival="332.00">
        <route edges="295298101#0 295298101#1 131700456#0 23265254#0 23265254#1 23265254#2 23265254#3 23265254#5 23265254#6 430045512#0"/>
        <stop busStop="1953905311" duration="30.00"/>
        <stop busStop="1390556611" duration="30.00"/>
        <stop busStop="1390556630" duration="30.00"/>
        <stop busStop="4730949125" duration="30.00"/>
    </vehicle>

    <vehicle id="8_bus_48:1" type="pt_bus" depart="119.00" departLane="2" arrival="344.00">
        <route edges="295298101#0 295298101#1 265663227 -295298104#1 -295298104#0 -1272473364#2 -1272473364#1 -1272473364#0 -157600569#1 -157600569#0 157600567#0 157600567#1 157600565#0 157600565#1 296577703#1 169368040 131700469#0 131700469#1 -432750249#4 -432750249#2 -432750249#1 -432750249#0 -157600591#1 -1272473366"/>
        <stop busStop="-1449161206" duration="30.00"/>
        <stop busStop="-1123631408" duration="30.00"/>
    </vehicle>

    <vehicle id="1_bus_345а:0" type="pt_bus" depart="15.00" departLane="0" arrival="368.00">
        <route edges="902481333#0 902481333#2 184849822#0 184849822#2 184849822#3 184849822#4 184849822#5 184849822#6 184849822#7 184849822#9 184849822#10 184849822#11 184849822#12 1272473362 24744035 34836269 157600515#0 157600515#1"/>
        <stop busStop="1953905283" duration="30.00"/>
        <stop busStop="1953905349" duration="30.00"/>
        <stop busStop="1953905353" duration="30.00"/>
        <stop busStop="1953905318" duration="30.00"/>
        <stop busStop="4730949154" duration="30.00"/>
    </vehicle>

    <vehicle id="2_bus_т86к:0" type="pt_bus" depart="21.00" departLane="0" arrival="406.00">
        <route edges="902481333#0 902481333#2 184849822#0 184849822#2 184849822#3 184849822#4 184849822#5 184849822#6 184849822#7 184849822#9 184849822#10 184849822#11 184849822#12 1272473362 24744035 34836269 157600515#0 157600515#1"/>
        <stop busStop="1953905283" duration="30.00"/>
        <stop busStop="1953905349" duration="30.00"/>
        <stop busStop="1953905353" duration="30.00"/>
        <stop busStop="1953905318" duration="30.00"/>
        <stop busStop="4730949154" duration="30.00"/>
    </vehicle>

    <vehicle id="5_bus_т21:0" type="pt_bus" depart="55.00" departLane="0" arrival="443.00">
        <route edges="902481333#0 902481333#2 184849822#0 184849822#2 184849822#3 184849822#4 184849822#5 184849822#6 184849822#7 184849822#9 184849822#10 184849822#11 184849822#12 1272473362 24744035 34836269 157600515#0 157600515#1"/>
        <stop busStop="1953905283" duration="30.00"/>
        <stop busStop="1953905349" duration="30.00"/>
        <stop busStop="1953905353" duration="30.00"/>
        <stop busStop="1953905318" duration="30.00"/>
        <stop busStop="4730949154" duration="30.00"/>
    </vehicle>

    <vehicle id="10_bus_м35:1" type="pt_bus" depart="132.00" departLane="0" arrival="443.00">
        <route edges="295298101#0 295298101#1 131700456#0 23265254#0 23265254#1 23265254#2 23265254#3 23265254#5 23265254#6 430045512#0"/>
        <stop busStop="1953905311" duration="30.00"/>
        <stop busStop="1390556611" duration="30.00"/>
        <stop busStop="1390556630" duration="30.00"/>
        <stop busStop="4730949125" duration="30.00"/>
    </vehicle>

    <vehicle id="18_bus_м3:1" type="pt_bus" depart="321.00" departLane="0" arrival="447.00">
        <route edges="430045516 264292226 594899548 594899548-AddedOffRampEdge 23396772#0 23396772#1 28053288#1 594899552"/>
        <stop busStop="6242129323" duration="30.00"/>
        <stop busStop="6242129326" duration="30.00"/>
    </vehicle>

    <vehicle id="14_bus_403:1" type="pt_bus" depart="204.00" departLane="2" arrival="462.00">
        <route edges="295298101#0 295298101#1 265663227 -295298104#1 -295298104#0 -1272473364#2 -1272473364#1 -1272473364#0 -157600569#1 -157600569#0 157600567#0 157600567#1 157600565#0 157600565#1 296577703#1 169368044 252110509#0 252110509#1 252110509#2 252110509#3 252110509#3-AddedOffRampEdge 296577702 30735491 1241633682"/>
        <stop busStop="-1449161206" duration="30.00"/>
        <stop busStop="1456333357" duration="30.00"/>
        <stop busStop="612522387" duration="30.00"/>
    </vehicle>

    <vehicle id="13_bus_403:0" type="pt_bus" depart="201.00" departLane="0" arrival="482.00">
        <route edges="430045516 264292226 264292208 88607524 84516980 497960128 157600569#0 157600569#1 1272473364#0 1272473364#1 1272473364#2 295298104#0 295298104#1 23242835 157600515#0 157600515#1"/>
        <stop busStop="2699824215" duration="30.00"/>
        <stop busStop="981969019" duration="30.00"/>
        <stop busStop="4730949154" duration="30.00"/>
    </vehicle>

    <vehicle id="9_bus_м35:0" type="pt_bus" depart="131.00" departLane="0" arrival="519.00">
        <route edges="902481333#0 902481333#2 184849822#0 184849822#2 184849822#3 184849822#4 184849822#5 184849822#6 184849822#7 184849822#9 184849822#10 184849822#11 184849822#12 1272473362 24744035 34836269 157600515#0 157600515#1"/>
        <stop busStop="1953905283" duration="30.00"/>
        <stop busStop="1953905349" duration="30.00"/>
        <stop busStop="1953905353" duration="30.00"/>
        <stop busStop="1953905318" duration="30.00"/>
        <stop busStop="4730949154" duration="30.00"/>
    </vehicle>

    <vehicle id="15_bus_345:0" type="pt_bus" depart="227.00" departLane="0" arrival="519.00">
        <route edges="295298101#0 295298101#1 131700456#0 23265254#0 23265254#1 23265254#2 23265254#3 23265254#5 23265254#6 430045512#0"/>
        <stop busStop="1953905311" duration="30.00"/>
        <stop busStop="1390556611" duration="30.00"/>
        <stop busStop="1390556630" duration="30.00"/>
        <stop busStop="4730949125" duration="30.00"/>
    </vehicle>

    <vehicle id="4_bus_м3а:1" type="pt_bus" depart="52.00" departLane="0" arrival="546.00">
        <route edges="28053297#0 28053297#1 46974418 252110509#0 252110509#1 252110509#2 252110509#3 252110509#3-AddedOffRampEdge 296577702 30735491 1241633682"/>
        <stop busStop="6242129325" duration="30.00"/>
        <stop busStop="1456333357" duration="30.00"/>
        <stop busStop="612522387" duration="30.00"/>
    </vehicle>

    <vehicle id="16_bus_345:1" type="pt_bus" depart="253.00" departLane="0" arrival="584.00">
        <route edges="902481333#0 902481333#2 184849822#0 184849822#2 184849822#3 184849822#4 184849822#5 184849822#6 184849822#7 184849822#9 184849822#10 184849822#11 184849822#12 1272473362 24744035 34836269 157600515#0 157600515#1"/>
        <stop busStop="1953905283" duration="30.00"/>
        <stop busStop="1953905349" duration="30.00"/>
        <stop busStop="1953905353" duration="30.00"/>
        <stop busStop="1953905318" duration="30.00"/>
        <stop busStop="4730949154" duration="30.00"/>
    </vehicle>

    <vehicle id="24_bus_391:0" type="pt_bus" depart="383.00" departLane="2" arrival="605.00">
        <route edges="295298101#0 295298101#1 265663227 -295298104#1 -295298104#0 -1272473364#2 -1272473364#1 -1272473364#0 -157600569#1 -157600569#0 157600567#0 157600567#1 157600565#0 157600565#1 296577703#1 169368044 252110509#0 252110509#1 252110509#2 252110509#3 252110509#3-AddedOffRampEdge 296577702 30735491 1241633682"/>
        <stop busStop="-1449161206" duration="30.00"/>
        <stop busStop="1456333357" duration="30.00"/>
        <stop busStop="612522387" duration="30.00"/>
    </vehicle>

    <vehicle id="25_bus_391:1" type="pt_bus" depart="389.00" departLane="0" arrival="645.00">
        <route edges="430045516 264292226 264292208 88607524 84516980 497960128 157600569#0 157600569#1 1272473364#0 1272473364#1 1272473364#2 295298104#0 295298104#1 23242835 157600515#0 157600515#1"/>
        <stop busStop="2699824215" duration="30.00"/>
        <stop busStop="981969019" duration="30.00"/>
        <stop busStop="4730949154" duration="30.00"/>
    </vehicle>

    <vehicle id="30_bus_294:1" type="pt_bus" depart="483.00" departLane="2" arrival="673.00">
        <route edges="295298101#0 295298101#1 265663227 -295298104#1 -295298104#0 -1272473364#2 -1272473364#1 -1272473364#0 -157600569#1 -157600569#0 157600567#0 157600567#1 157600565#0 157600565#1 296577703#1 169368040 131700469#0 131700469#1 -432750249#4 -432750249#2 -432750249#1 -432750249#0 -157600591#1 -1272473366"/>
        <stop busStop="-1449161206" duration="30.00"/>
        <stop busStop="-1123631408" duration="30.00"/>
    </vehicle>

    <vehicle id="28_bus_с339:0" type="pt_bus" depart="437.00" departLane="0" arrival="674.00">
        <route edges="-154204353"/>
        <stop busStop="-10799104370" duration="30.00"/>
        <stop busStop="-10799104367" duration="30.00"/>
        <stop busStop="-10799104373" duration="30.00"/>
        <stop busStop="-10799104385" duration="30.00"/>
    </vehicle>

    <vehicle id="27_bus_800:1" type="pt_bus" depart="418.00" departLane="0" arrival="683.00">
        <route edges="430045516 264292226 264292208 88607524 84516980 497960128 157600569#0 157600569#1 1272473364#0 1272473364#1 1272473364#2 295298104#0 295298104#1 23242835 157600515#0 157600515#1"/>
        <stop busStop="2699824215" duration="30.00"/>
        <stop busStop="981969019" duration="30.00"/>
        <stop busStop="4730949154" duration="30.00"/>
    </vehicle>

    <vehicle id="21_bus_т86:1" type="pt_bus" depart="353.00" departLane="0" arrival="688.00">
        <route edges="295298101#0 295298101#1 131700456#0 23265254#0 23265254#1 23265254#2 23265254#3 23265254#5 23265254#6 430045512#0"/>
        <stop busStop="1953905311" duration="30.00"/>
        <stop busStop="1390556611" duration="30.00"/>
        <stop busStop="1390556630" duration="30.00"/>
        <stop busStop="4730949125" duration="30.00"/>
    </vehicle>

    <vehicle id="32_bus_322:1" type="pt_bus" depart="489.00" departLane="2" arrival="701.00">
        <route edges="295298101#0 295298101#1 265663227 -295298104#1 -295298104#0 -1272473364#2 -1272473364#1 -1272473364#0 -157600569#1 -157600569#0 157600567#0 157600567#1 157600565#0 157600565#1 296577703#1 169368040 131700469#0 131700469#1 -432750249#4 -432750249#2 -432750249#1 -432750249#0 -157600591#1 -1272473366"/>
        <stop busStop="-1449161206" duration="30.00"/>
        <stop busStop="-1123631408" duration="30.00"/>
    </vehicle>

    <vehicle id="19_bus_т65:0" type="pt_bus" depart="326.00" departLane="0" arrival="721.00">
        <route edges="902481333#0 902481333#2 184849822#0 184849822#2 184849822#3 184849822#4 184849822#5 184849822#6 184849822#7 184849822#9 184849822#10 184849822#11 184849822#12 1272473362 24744035 34836269 157600515#0 157600515#1"/>
        <stop busStop="1953905283" duration="30.00"/>
        <stop busStop="1953905349" duration="30.00"/>
        <stop busStop="1953905353" duration="30.00"/>
        <stop busStop="1953905318" duration="30.00"/>
        <stop busStop="4730949154" duration="30.00"/>
    </vehicle>

    <vehicle id="22_bus_155:0" type="pt_bus" depart="362.00" departLane="0" arrival="726.00">
        <route edges="295298101#0 295298101#1 131700456#0 23265254#0 23265254#1 23265254#2 23265254#3 23265254#5 23265254#6 430045512#0"/>
        <stop busStop="1953905311" duration="30.00"/>
        <stop busStop="1390556611" duration="30.00"/>
        <stop busStop="1390556630" duration="30.00"/>
        <stop busStop="4730949125" duration="30.00"/>
    </vehicle>

    <vehicle id="20_bus_т86:0" type="pt_bus" depart="331.00" departLane="0" arrival="758.00">
        <route edges="902481333#0 902481333#2 184849822#0 184849822#2 184849822#3 184849822#4 184849822#5 184849822#6 184849822#7 184849822#9 184849822#10 184849822#11 184849822#12 1272473362 24744035 34836269 157600515#0 157600515#1"/>
        <stop busStop="1953905283" duration="30.00"/>
        <stop busStop="1953905349" duration="30.00"/>
        <stop busStop="1953905353" duration="30.00"/>
        <stop busStop="1953905318" duration="30.00"/>
        <stop busStop="4730949154" duration="30.00"/>
    </vehicle>

    <vehicle id="31_bus_322:0" type="pt_bus" depart="484.00" departLane="0" arrival="796.00">
        <route edges="1272473366 157600591#0 432750249#0 432750249#1 432750249#2 432750249#4 1272473359 131700470#0 131700470#1 497960128 157600569#0 157600569#1 1272473364#0 1272473364#1 1272473364#2 295298104#0 295298104#1 23242835 157600515#0 157600515#1"/>
        <stop busStop="12997959838" duration="30.00"/>
        <stop busStop="981969019" duration="30.00"/>
        <stop busStop="4730949154" duration="30.00"/>
    </vehicle>

    <vehicle id="26_bus_800:0" type="pt_bus" depart="406.00" departLane="2" arrival="806.00">
        <route edges="295298101#0 295298101#1 265663227 -295298104#1 -295298104#0 -1272473364#2 -1272473364#1 -1272473364#0 -157600569#1 -157600569#0 157600567#0 157600567#1 157600565#0 157600565#1 296577703#1 169368044 252110509#0 252110509#1 252110509#2 252110509#3 252110509#3-AddedOffRampEdge 296577702 964943667 78432206#0 78432206#1 78432206#2 78432206#3 395544026#0 430045512#0"/>
        <stop busStop="-1449161206" duration="30.00"/>
        <stop busStop="1456333357" duration="30.00"/>
        <stop busStop="612522387" duration="30.00"/>
        <stop busStop="1390556630" duration="30.00"/>
        <stop busStop="4730949125" duration="30.00"/>
    </vehicle>

    <vehicle id="23_bus_155:1" type="pt_bus" depart="371.00" departLane="0" arrival="835.00">
        <route edges="902481333#0 902481333#2 184849822#0 184849822#2 184849822#3 184849822#4 184849822#5 184849822#6 184849822#7 184849822#9 184849822#10 184849822#11 184849822#12 1272473362 24744035 34836269 157600515#0 157600515#1"/>
        <stop busStop="1953905283" duration="30.00"/>
        <stop busStop="1953905349" duration="30.00"/>
        <stop busStop="1953905353" duration="30.00"/>
        <stop busStop="1953905318" duration="30.00"/>
        <stop busStop="4730949154" duration="30.00"/>
    </vehicle>

    <vehicle id="34_bus_597:1" type="pt_bus" depart="508.00" departLane="0" arrival="846.00">
        <route edges="295298101#0 295298101#1 131700456#0 23265254#0 23265254#1 23265254#2 23265254#3 23265254#5 23265254#6 430045512#0"/>
        <stop busStop="1953905311" duration="30.00"/>
        <stop busStop="1390556611" duration="30.00"/>
        <stop busStop="1390556630" duration="30.00"/>
        <stop busStop="4730949125" duration="30.00"/>
    </vehicle>

    <vehicle id="17_bus_м3:0" type="pt_bus" depart="303.00" departLane="0" arrival="852.00">
        <route edges="28053297#0 28053297#1 46974418 252110509#0 252110509#1 252110509#2 252110509#3 252110509#3-AddedOffRampEdge 296577702 30735491 1241633682"/>
        <stop busStop="6242129325" duration="30.00"/>
        <stop busStop="1456333357" duration="30.00"/>
        <stop busStop="612522387" duration="30.00"/>
    </vehicle>

    <vehicle id="29_bus_с339:1" type="pt_bus" depart="441.00" departLane="0" arrival="872.00">
        <route edges="154204353 1272473361 24744053 157600515#0 157600515#1"/>
        <stop busStop="10799104384" duration="30.00"/>
        <stop busStop="10799104374" duration="30.00"/>
        <stop busStop="10799104369" duration="30.00"/>
        <stop busStop="10799104372" duration="30.00"/>
        <stop busStop="4730949154" duration="30.00"/>
    </vehicle>

    <vehicle id="35_bus_т65:1" type="pt_bus" depart="535.00" departLane="0" arrival="883.00">
        <route edges="295298101#0 295298101#1 131700456#0 23265254#0 23265254#1 23265254#2 23265254#3 23265254#5 23265254#6 430045512#0"/>
        <stop busStop="1953905311" duration="30.00"/>
        <stop busStop="1390556611" duration="30.00"/>
        <stop busStop="1390556630" duration="30.00"/>
        <stop busStop="4730949125" duration="30.00"/>
    </vehicle>

    <vehicle id="33_bus_597:0" type="pt_bus" depart="497.00" departLane="0" arrival="911.00">
        <route edges="902481333#0 902481333#2 184849822#0 184849822#2 184849822#3 184849822#4 184849822#5 184849822#6 184849822#7 184849822#9 184849822#10 184849822#11 184849822#12 1272473362 24744035 34836269 157600515#0 157600515#1"/>
        <stop busStop="1953905283" duration="30.00"/>
        <stop busStop="1953905349" duration="30.00"/>
        <stop busStop="1953905353" duration="30.00"/>
        <stop busStop="1953905318" duration="30.00"/>
        <stop busStop="4730949154" duration="30.00"/>
    </vehicle>

    <vehicle id="36_bus_390:0" type="pt_bus" depart="574.00" departLane="0" arrival="922.00">
        <route edges="295298101#0 295298101#1 131700456#0 23265254#0 23265254#1 23265254#2 23265254#3 23265254#5 23265254#6 430045512#0"/>
        <stop busStop="1953905311" duration="30.00"/>
        <stop busStop="1390556611" duration="30.00"/>
        <stop busStop="1390556630" duration="30.00"/>
        <stop busStop="4730949125" duration="30.00"/>
    </vehicle>

    <vehicle id="37_bus_390:1" type="pt_bus" depart="583.00" departLane="0" arrival="950.00">
        <route edges="902481333#0 902481333#2 184849822#0 184849822#2 184849822#3 184849822#4 184849822#5 184849822#6 184849822#7 184849822#9 184849822#10 184849822#11 184849822#12 1272473362 24744035 34836269 157600515#0 157600515#1"/>
        <stop busStop="1953905283" duration="30.00"/>
        <stop busStop="1953905349" duration="30.00"/>
        <stop busStop="1953905353" duration="30.00"/>
        <stop busStop="1953905318" duration="30.00"/>
        <stop busStop="4730949154" duration="30.00"/>
    </vehicle>

</routes>
